Ideal graphene structure in YZ plane created with create_graphen.pl

2 atoms

2 atom types

	0.0 20 xlo xhi
	0.0 20 ylo yhi
	0.0 5 zlo zhi

Atoms

 1 1 10 10 0.0 
 2 2 0 0 3.35
1 1 89 36 298
	2 1 44 63 299
	3 1 38 104 295
	4 1 37 130 297
	5 1 41 256 298
	6 1 41 282 296
	7 1 33 296 288
	8 1 15 1104 296
	9 1 61 1109 298
	10 1 52 1178 297
	11 1 16 1219 299
	12 1 14 1251 296
	13 1 51 1269 297
	14 1 79 1290 299
	15 1 31 1341 299
	16 1 85 1343 296
	17 1 17 1353 298
	18 1 52 1344 299
	19 1 46 1368 292
	20 1 75 1372 298
	21 1 26 1385 293
	22 1 16 7 60
	23 1 64 16 51
	24 1 13 19 51
	25 1 73 30 53
	26 1 59 43 51
	27 1 87 71 56
	28 1 15 96 53
	29 1 75 89 50
	30 1 51 103 58
	31 1 75 104 58
	32 1 31 117 56
	33 1 51 119 58
	34 1 5 118 50
	35 1 14 129 54
	36 1 2 139 58
	37 1 1 157 52
	38 1 28 135 58
	39 1 68 149 53
	40 1 51 161 52
	41 1 77 163 50
	42 1 55 186 50
	43 1 25 196 59
	44 1 47 196 57
	45 1 13 210 56
	46 1 0 215 50
	47 1 28 213 63
	48 1 46 210 62
	49 1 60 206 51
	50 1 75 212 56
	51 1 40 223 56
	52 1 57 222 55
	53 1 16 267 53
	54 1 47 295 50
	55 1 86 294 54
	56 1 50 1100 54
	57 1 87 1107 58
	58 1 73 1107 64
	59 1 10 1121 53
	60 1 84 1122 52
	61 1 46 1128 53
	62 1 3 1137 57
	63 1 67 1126 53
	64 1 21 1169 56
	65 1 23 1146 52
	66 1 35 1160 55
	67 1 65 1163 54
	68 1 16 1193 54
	69 1 77 1186 50
	70 1 23 1211 51
	71 1 20 1233 51
	72 1 35 1223 59
	73 1 58 1221 50
	74 1 0 1261 51
	75 1 42 1257 51
	76 1 55 1251 59
	77 1 84 1245 53
	78 1 23 1279 52
	79 1 59 1277 53
	80 1 9 1301 51
	81 1 27 1328 54
	82 1 39 1371 53
	83 1 54 1379 55
	84 1 51 1355 56
	85 1 65 1372 52
	86 1 16 1376 52
	87 1 21 1392 52
	88 1 34 1399 52
	89 1 3 1397 54
	90 1 75 1391 56
	91 1 60 2 62
	92 1 0 0 70
	93 1 86 14 62
	94 1 26 22 62
	95 1 44 8 65
	96 1 59 22 67
	97 1 75 20 70
	98 1 11 39 55
	99 1 19 56 66
	100 1 49 49 62
	101 1 30 39 59
	102 1 37 57 61
	103 1 0 54 62
	104 1 78 49 52
	105 1 14 69 56
	106 1 54 67 57
	107 1 69 59 62
	108 1 28 75 64
	109 1 44 74 67
	110 1 59 77 74
	111 1 74 79 63
	112 1 0 94 62
	113 1 3 85 77
	114 1 20 88 69
	115 1 40 92 64
	116 1 59 89 60
	117 1 30 102 61
	118 1 11 111 62
	119 1 77 120 62
	120 1 10 133 69
	121 1 18 148 59
	122 1 41 136 65
	123 1 54 141 52
	124 1 78 140 61
	125 1 23 164 59
	126 1 50 150 68
	127 1 35 155 60
	128 1 63 168 53
	129 1 11 175 69
	130 1 24 181 57
	131 1 39 175 55
	132 1 67 183 61
	133 1 82 177 54
	134 1 85 176 70
	135 1 7 186 57
	136 1 5 192 73
	137 1 40 187 67
	138 1 71 197 67
	139 1 87 200 63
	140 1 16 228 60
	141 1 34 225 73
	142 1 3 244 66
	143 1 0 229 60
	144 1 28 245 71
	145 1 36 237 58
	146 1 51 251 59
	147 1 62 232 64
	148 1 66 249 63
	149 1 78 240 58
	150 1 22 256 64
	151 1 85 258 60
	152 1 13 246 52
	153 1 36 257 55
	154 1 11 265 69
	155 1 34 273 58
	156 1 59 268 62
	157 1 76 273 59
	158 1 46 285 66
	159 1 16 289 58
	160 1 31 293 64
	161 1 65 287 55
	162 1 12 1103 66
	163 1 43 1116 65
	164 1 29 1109 67
	165 1 59 1108 66
	166 1 26 1125 56
	167 1 41 1134 68
	168 1 77 1144 57
	169 1 81 1146 74
	170 1 26 1158 76
	171 1 17 1155 62
	172 1 40 1149 65
	173 1 47 1168 68
	174 1 56 1149 62
	175 1 84 1164 64
	176 1 0 1155 50
	177 1 9 1171 68
	178 1 45 1186 58
	179 1 30 1181 62
	180 1 62 1183 62
	181 1 28 1201 64
	182 1 87 1200 60
	183 1 46 1209 62
	184 1 67 1208 58
	185 1 89 1216 63
	186 1 86 1230 54
	187 1 15 1248 65
	188 1 41 1238 63
	189 1 70 1246 63
	190 1 70 1231 60
	191 1 10 1262 66
	192 1 23 1267 63
	193 1 29 1249 58
	194 1 42 1256 70
	195 1 56 1262 70
	196 1 72 1265 56
	197 1 46 1273 59
	198 1 75 1283 54
	199 1 3 1278 63
	200 1 10 1290 60
	201 1 30 1293 57
	202 1 61 1303 56
	203 1 73 1294 65
	204 1 38 1307 57
	205 1 79 1306 52
	206 1 82 1307 68
	207 1 2 1319 53
	208 1 8 1333 58
	209 1 15 1318 61
	210 1 52 1322 61
	211 1 78 1321 68
	212 1 6 1344 69
	213 1 41 1335 57
	214 1 66 1326 57
	215 1 61 1342 62
	216 1 81 1333 59
	217 1 22 1344 57
	218 1 39 1346 66
	219 1 76 1346 66
	220 1 86 1355 58
	221 1 4 1368 58
	222 1 24 1377 65
	223 1 17 1353 72
	224 1 25 1361 58
	225 1 48 1366 68
	226 1 69 1362 64
	227 1 42 1388 58
	228 1 3 1384 65
	229 1 78 1377 66
	230 1 10 5 81
	231 1 27 4 72
	232 1 1 17 86
	233 1 23 19 79
	234 1 7 26 73
	235 1 39 36 74
	236 1 44 25 64
	237 1 73 45 77
	238 1 77 26 85
	239 1 83 37 67
	240 1 9 42 71
	241 1 6 49 85
	242 1 31 50 76
	243 1 22 36 80
	244 1 55 46 81
	245 1 61 39 67
	246 1 85 39 89
	247 1 4 65 91
	248 1 21 67 81
	249 1 21 54 91
	250 1 8 71 72
	251 1 39 65 79
	252 1 59 61 78
	253 1 83 61 75
	254 1 77 59 92
	255 1 76 75 80
	256 1 42 88 79
	257 1 75 95 74
	258 1 2 100 78
	259 1 28 99 80
	260 1 20 109 74
	261 1 54 100 77
	262 1 0 117 71
	263 1 38 119 71
	264 1 45 115 83
	265 1 61 114 72
	266 1 26 129 75
	267 1 31 145 74
	268 1 57 132 66
	269 1 68 129 75
	270 1 81 136 76
	271 1 11 158 70
	272 1 86 158 66
	273 1 16 151 82
	274 1 26 166 78
	275 1 36 156 83
	276 1 45 167 67
	277 1 54 139 81
	278 1 51 156 84
	279 1 58 168 75
	280 1 71 167 68
	281 1 67 150 70
	282 1 78 164 82
	283 1 87 151 81
	284 1 9 170 84
	285 1 42 176 80
	286 1 57 186 73
	287 1 26 195 80
	288 1 26 181 75
	289 1 80 199 85
	290 1 18 207 74
	291 1 42 201 79
	292 1 82 227 73
	293 1 7 227 82
	294 1 0 213 72
	295 1 46 216 79
	296 1 69 230 80
	297 1 53 231 78
	298 1 63 212 72
	299 1 10 247 79
	300 1 20 231 75
	301 1 2 255 91
	302 1 22 249 88
	303 1 44 243 72
	304 1 55 252 78
	305 1 72 262 72
	306 1 68 246 84
	307 1 81 248 78
	308 1 1 273 73
	309 1 20 266 83
	310 1 28 276 71
	311 1 46 269 87
	312 1 35 257 84
	313 1 55 275 76
	314 1 62 263 90
	315 1 43 263 70
	316 1 83 268 86
	317 1 70 274 86
	318 1 85 285 67
	319 1 6 294 71
	320 1 25 288 83
	321 1 56 291 80
	322 1 39 295 82
	323 1 69 287 72
	324 1 16 1102 81
	325 1 5 1117 72
	326 1 28 1121 77
	327 1 54 1118 77
	328 1 74 1115 84
	329 1 28 1137 80
	330 1 16 1133 69
	331 1 10 1122 86
	332 1 75 1125 69
	333 1 62 1135 72
	334 1 85 1131 80
	335 1 7 1147 71
	336 1 68 1154 71
	337 1 44 1162 86
	338 1 63 1170 74
	339 1 33 1174 80
	340 1 79 1169 81
	341 1 22 1187 77
	342 1 80 1182 69
	343 1 6 1187 68
	344 1 0 1199 81
	345 1 43 1196 72
	346 1 73 1198 70
	347 1 13 1204 73
	348 1 63 1213 78
	349 1 14 1219 68
	350 1 30 1217 75
	351 1 41 1224 80
	352 1 52 1235 73
	353 1 59 1223 68
	354 1 80 1221 74
	355 1 17 1242 81
	356 1 22 1233 67
	357 1 83 1238 76
	358 1 67 1244 80
	359 1 4 1237 67
	360 1 3 1253 81
	361 1 25 1262 85
	362 1 31 1249 77
	363 1 50 1248 84
	364 1 77 1256 74
	365 1 12 1277 91
	366 1 6 1268 81
	367 1 22 1279 77
	368 1 35 1272 69
	369 1 42 1274 82
	370 1 55 1265 88
	371 1 65 1270 75
	372 1 59 1285 80
	373 1 78 1261 89
	374 1 75 1281 73
	375 1 85 1265 67
	376 1 0 1288 76
	377 1 7 1304 71
	378 1 23 1299 72
	379 1 36 1289 75
	380 1 37 1301 85
	381 1 51 1291 66
	382 1 74 1303 81
	383 1 0 1299 89
	384 1 16 1311 86
	385 1 24 1315 71
	386 1 38 1319 71
	387 1 51 1310 72
	388 1 33 1322 85
	389 1 63 1322 77
	390 1 12 1330 78
	391 1 27 1337 75
	392 1 71 1336 79
	393 1 87 1331 78
	394 1 41 1353 84
	395 1 51 1339 75
	396 1 81 1355 79
	397 1 4 1368 89
	398 1 12 1373 75
	399 1 3 1361 75
	400 1 33 1361 72
	401 1 24 1364 84
	402 1 36 1386 73
	403 1 54 1385 71
	404 1 66 1387 81
	405 1 82 1382 84
	406 1 20 1391 75
	407 1 74 1397 71
	408 1 73 10 92
	409 1 20 18 96
	410 1 41 23 103
	411 1 40 20 82
	412 1 41 2 82
	413 1 61 29 88
	414 1 52 14 93
	415 1 62 12 79
	416 1 75 22 104
	417 1 46 35 93
	418 1 29 32 97
	419 1 32 52 102
	420 1 40 48 88
	421 1 70 45 98
	422 1 44 64 95
	423 1 57 54 99
	424 1 3 79 96
	425 1 19 69 102
	426 1 22 84 86
	427 1 35 76 92
	428 1 61 71 95
	429 1 53 84 90
	430 1 77 73 102
	431 1 16 88 100
	432 1 68 91 89
	433 1 14 102 92
	434 1 38 95 95
	435 1 33 109 93
	436 1 56 104 95
	437 1 82 91 96
	438 1 89 107 92
	439 1 8 120 99
	440 1 36 120 105
	441 1 51 125 93
	442 1 66 115 89
	443 1 80 118 83
	444 1 5 136 82
	445 1 13 120 83
	446 1 27 125 91
	447 1 34 137 102
	448 1 80 123 102
	449 1 8 136 97
	450 1 22 148 104
	451 1 23 141 89
	452 1 41 138 88
	453 1 66 135 91
	454 1 81 137 94
	455 1 6 157 93
	456 1 29 162 95
	457 1 41 154 101
	458 1 58 151 98
	459 1 68 152 86
	460 1 18 173 100
	461 1 52 187 89
	462 1 48 171 95
	463 1 63 169 92
	464 1 70 184 95
	465 1 80 169 96
	466 1 76 183 81
	467 1 6 184 87
	468 1 8 199 92
	469 1 20 192 98
	470 1 29 181 91
	471 1 40 190 99
	472 1 62 198 84
	473 1 53 187 107
	474 1 7 212 87
	475 1 31 210 91
	476 1 18 216 99
	477 1 88 239 91
	478 1 23 231 91
	479 1 38 226 91
	480 1 79 214 87
	481 1 45 240 91
	482 1 33 248 99
	483 1 55 250 98
	484 1 9 269 96
	485 1 34 279 107
	486 1 32 276 90
	487 1 9 282 86
	488 1 44 287 97
	489 1 13 294 96
	490 1 58 287 96
	491 1 0 296 88
	492 1 78 287 87
	493 1 6 1106 98
	494 1 27 1109 91
	495 1 52 1109 92
	496 1 24 1126 94
	497 1 40 1125 94
	498 1 54 1144 85
	499 1 56 1128 89
	500 1 13 1148 86
	501 1 40 1147 83
	502 1 32 1146 97
	503 1 83 1151 90
	504 1 18 1158 98
	505 1 64 1155 87
	506 1 4 1164 86
	507 1 54 1176 86
	508 1 80 1169 99
	509 1 63 1168 100
	510 1 8 1181 87
	511 1 20 1173 94
	512 1 44 1186 90
	513 1 68 1185 88
	514 1 84 1185 93
	515 1 14 1195 95
	516 1 22 1210 91
	517 1 31 1196 88
	518 1 43 1203 96
	519 1 55 1210 90
	520 1 58 1195 78
	521 1 73 1201 89
	522 1 8 1215 87
	523 1 81 1214 88
	524 1 10 1230 86
	525 1 89 1225 99
	526 1 25 1226 92
	527 1 75 1230 89
	528 1 9 1247 94
	529 1 34 1240 89
	530 1 60 1235 89
	531 1 83 1243 93
	532 1 41 1258 94
	533 1 64 1254 96
	534 1 69 1275 95
	535 1 83 1278 89
	536 1 88 1288 100
	537 1 18 1291 86
	538 1 48 1290 92
	539 1 71 1294 96
	540 1 59 1302 82
	541 1 59 1315 92
	542 1 73 1315 97
	543 1 87 1315 85
	544 1 5 1319 98
	545 1 20 1328 92
	546 1 41 1336 88
	547 1 56 1331 89
	548 1 81 1330 95
	549 1 24 1347 89
	550 1 57 1344 104
	551 1 45 1354 98
	552 1 58 1357 91
	553 1 72 1351 90
	554 1 59 1355 75
	555 1 69 1338 100
	556 1 89 1346 91
	557 1 29 1362 100
	558 1 44 1372 99
	559 1 25 1377 91
	560 1 41 1375 82
	561 1 56 1373 86
	562 1 69 1370 78
	563 1 76 1368 92
	564 1 62 1368 104
	565 1 8 1387 85
	566 1 89 1379 103
	567 1 16 1378 104
	568 1 21 2 92
	569 1 31 1390 94
	570 1 45 1392 97
	571 1 57 1399 86
	572 1 83 1399 87
	573 1 2 7 104
	574 1 35 7 102
	575 1 56 15 110
	576 1 14 16 113
	577 1 36 23 116
	578 1 3 25 102
	579 1 10 36 115
	580 1 83 40 106
	581 1 13 37 96
	582 1 57 35 105
	583 1 7 54 105
	584 1 24 43 112
	585 1 39 40 117
	586 1 42 62 111
	587 1 60 60 115
	588 1 27 79 111
	589 1 60 79 109
	590 1 43 82 105
	591 1 48 101 107
	592 1 66 97 110
	593 1 77 106 102
	594 1 21 111 106
	595 1 49 122 110
	596 1 65 119 107
	597 1 61 136 106
	598 1 9 141 112
	599 1 52 152 113
	600 1 44 139 113
	601 1 84 136 112
	602 1 71 145 114
	603 1 5 159 107
	604 1 70 162 107
	605 1 80 151 99
	606 1 2 175 102
	607 1 41 170 109
	608 1 58 173 112
	609 1 79 171 116
	610 1 13 182 113
	611 1 85 190 100
	612 1 30 201 106
	613 1 63 200 101
	614 1 70 186 112
	615 1 84 199 112
	616 1 5 208 107
	617 1 38 223 108
	618 1 52 220 97
	619 1 63 214 90
	620 1 4 227 103
	621 1 56 231 108
	622 1 78 228 97
	623 1 81 225 113
	624 1 12 239 103
	625 1 26 236 111
	626 1 67 237 98
	627 1 89 260 109
	628 1 16 252 107
	629 1 35 250 119
	630 1 75 256 99
	631 1 74 245 114
	632 1 22 266 104
	633 1 42 260 103
	634 1 18 282 107
	635 1 41 267 119
	636 1 56 272 104
	637 1 72 280 106
	638 1 88 277 106
	639 1 16 298 110
	640 1 88 290 115
	641 1 62 297 110
	642 1 81 299 105
	643 1 35 1103 105
	644 1 82 1102 115
	645 1 25 1118 109
	646 1 47 1115 107
	647 1 68 1116 99
	648 1 3 1120 113
	649 1 76 1131 106
	650 1 1 1137 96
	651 1 88 1120 98
	652 1 88 1144 111
	653 1 16 1139 101
	654 1 30 1134 111
	655 1 43 1133 117
	656 1 55 1136 103
	657 1 70 1143 98
	658 1 63 1154 110
	659 1 30 1166 110
	660 1 48 1161 103
	661 1 0 1178 113
	662 1 42 1176 104
	663 1 21 1181 110
	664 1 33 1190 106
	665 1 59 1188 103
	666 1 73 1178 114
	667 1 7 1192 110
	668 1 26 1205 106
	669 1 76 1194 106
	670 1 4 1214 111
	671 1 89 1204 100
	672 1 37 1218 100
	673 1 56 1204 107
	674 1 14 1224 110
	675 1 5 1238 106
	676 1 23 1235 106
	677 1 47 1234 112
	678 1 48 1227 94
	679 1 57 1221 110
	680 1 60 1237 104
	681 1 68 1218 99
	682 1 77 1225 113
	683 1 21 1252 101
	684 1 35 1247 104
	685 1 73 1243 106
	686 1 3 1258 104
	687 1 50 1251 108
	688 1 5 1276 106
	689 1 22 1270 99
	690 1 36 1269 110
	691 1 41 1276 97
	692 1 78 1264 106
	693 1 20 1281 115
	694 1 35 1287 105
	695 1 57 1289 114
	696 1 58 1279 102
	697 1 7 1300 105
	698 1 17 1316 107
	699 1 22 1295 99
	700 1 41 1304 112
	701 1 43 1315 95
	702 1 29 1309 101
	703 1 54 1302 101
	704 1 60 1308 114
	705 1 82 1311 109
	706 1 29 1326 108
	707 1 56 1325 106
	708 1 8 1335 99
	709 1 32 1339 101
	710 1 49 1337 115
	711 1 77 1328 113
	712 1 13 1351 97
	713 1 5 1341 112
	714 1 38 1350 112
	715 1 79 1356 106
	716 1 5 1362 104
	717 1 23 1361 114
	718 1 39 1382 110
	719 1 75 1378 106
	720 1 6 1392 101
	721 1 19 1397 109
	722 1 58 1385 98
	723 1 72 1393 99
	724 1 59 1398 109
	725 1 77 5 109
	726 1 87 6 123
	727 1 18 6 128
	728 1 44 1396 116
	729 1 31 4 118
	730 1 1 20 127
	731 1 25 22 126
	732 1 3 38 129
	733 1 59 37 119
	734 1 78 28 118
	735 1 20 47 128
	736 1 88 59 116
	737 1 74 49 118
	738 1 21 61 117
	739 1 40 62 127
	740 1 42 77 124
	741 1 4 92 111
	742 1 30 101 129
	743 1 58 83 124
	744 1 42 93 119
	745 1 75 73 119
	746 1 80 88 117
	747 1 14 104 120
	748 1 26 96 112
	749 1 4 126 120
	750 1 1 110 112
	751 1 20 127 111
	752 1 17 119 127
	753 1 36 114 121
	754 1 54 109 120
	755 1 73 118 120
	756 1 58 123 130
	757 1 81 103 124
	758 1 87 119 134
	759 1 30 138 120
	760 1 43 131 128
	761 1 61 137 123
	762 1 79 132 127
	763 1 86 152 118
	764 1 16 148 125
	765 1 8 162 123
	766 1 22 161 112
	767 1 24 166 127
	768 1 54 154 131
	769 1 64 160 121
	770 1 80 157 131
	771 1 45 171 127
	772 1 1 179 121
	773 1 30 179 113
	774 1 24 182 129
	775 1 4 198 126
	776 1 16 196 115
	777 1 23 206 123
	778 1 42 186 121
	779 1 48 200 124
	780 1 78 190 124
	781 1 14 217 136
	782 1 7 223 119
	783 1 22 220 115
	784 1 38 210 118
	785 1 56 219 120
	786 1 47 205 104
	787 1 67 230 121
	788 1 76 211 105
	789 1 64 207 115
	790 1 0 214 128
	791 1 7 236 127
	792 1 57 251 114
	793 1 43 237 115
	794 1 4 260 125
	795 1 88 245 118
	796 1 23 261 120
	797 1 70 264 114
	798 1 56 263 125
	799 1 10 276 122
	800 1 47 283 116
	801 1 67 280 122
	802 1 25 284 123
	803 1 40 292 128
	804 1 58 292 124
	805 1 7 1102 121
	806 1 34 1108 124
	807 1 59 1104 113
	808 1 19 1110 119
	809 1 47 1115 124
	810 1 68 1116 128
	811 1 73 1117 114
	812 1 11 1143 133
	813 1 12 1136 116
	814 1 16 1125 128
	815 1 58 1129 120
	816 1 74 1137 122
	817 1 44 1156 124
	818 1 30 1146 130
	819 1 42 1149 109
	820 1 59 1145 123
	821 1 7 1156 121
	822 1 23 1152 115
	823 1 72 1159 123
	824 1 85 1160 111
	825 1 12 1172 120
	826 1 55 1181 116
	827 1 56 1168 124
	828 1 25 1190 125
	829 1 17 1202 119
	830 1 42 1195 119
	831 1 64 1199 119
	832 1 2 1219 127
	833 1 26 1217 118
	834 1 42 1212 115
	835 1 61 1215 125
	836 1 78 1210 116
	837 1 11 1233 129
	838 1 34 1231 116
	839 1 62 1235 121
	840 1 8 1248 121
	841 1 23 1243 124
	842 1 39 1244 126
	843 1 81 1251 115
	844 1 86 1235 120
	845 1 74 1246 133
	846 1 6 1270 119
	847 1 19 1261 115
	848 1 33 1258 121
	849 1 61 1251 121
	850 1 84 1260 126
	851 1 58 1264 110
	852 1 49 1273 121
	853 1 67 1269 124
	854 1 75 1280 113
	855 1 44 1288 126
	856 1 64 1285 130
	857 1 30 1295 119
	858 1 86 1293 115
	859 1 14 1303 119
	860 1 24 1320 125
	861 1 45 1307 129
	862 1 74 1301 119
	863 1 5 1320 117
	864 1 10 1332 125
	865 1 42 1321 117
	866 1 60 1324 121
	867 1 84 1316 128
	868 1 33 1337 122
	869 1 20 1345 115
	870 1 48 1352 127
	871 1 88 1353 122
	872 1 76 1342 117
	873 1 5 1367 118
	874 1 36 1366 128
	875 1 55 1372 121
	876 1 62 1356 114
	877 1 44 1365 113
	878 1 75 1370 122
	879 1 16 1375 131
	880 1 25 1377 117
	881 1 88 1380 123
	882 1 78 1391 122
	883 1 10 1391 121
	884 1 53 1391 129
	885 1 63 1384 118
	886 1 65 6 123
	887 1 11 12 140
	888 1 44 11 127
	889 1 74 8 137
	890 1 19 31 136
	891 1 43 25 133
	892 1 66 22 127
	893 1 54 35 135
	894 1 66 39 145
	895 1 79 33 137
	896 1 6 44 144
	897 1 42 48 141
	898 1 50 50 126
	899 1 78 52 134
	900 1 11 61 135
	901 1 27 61 138
	902 1 89 70 129
	903 1 25 75 128
	904 1 51 72 138
	905 1 66 65 132
	906 1 81 70 144
	907 1 87 89 135
	908 1 10 79 121
	909 1 15 90 134
	910 1 28 83 142
	911 1 45 90 136
	912 1 66 95 128
	913 1 8 105 133
	914 1 52 105 136
	915 1 69 111 135
	916 1 45 118 142
	917 1 18 135 134
	918 1 31 122 134
	919 1 87 153 148
	920 1 0 143 134
	921 1 51 142 139
	922 1 67 154 141
	923 1 70 139 138
	924 1 82 134 149
	925 1 10 161 140
	926 1 25 165 144
	927 1 31 146 136
	928 1 37 156 121
	929 1 57 169 142
	930 1 3 175 135
	931 1 72 172 133
	932 1 86 190 139
	933 1 59 181 131
	934 1 80 175 146
	935 1 15 195 137
	936 1 33 196 133
	937 1 45 191 142
	938 1 62 195 127
	939 1 71 196 140
	940 1 30 218 137
	941 1 49 206 142
	942 1 44 219 130
	943 1 59 222 146
	944 1 64 211 136
	945 1 76 209 126
	946 1 82 215 144
	947 1 11 230 145
	948 1 28 233 131
	949 1 51 231 136
	950 1 79 228 132
	951 1 17 246 133
	952 1 51 244 128
	953 1 66 246 133
	954 1 83 241 138
	955 1 78 260 129
	956 1 21 263 135
	957 1 62 268 138
	958 1 28 276 137
	959 1 45 274 134
	960 1 74 280 135
	961 1 89 283 130
	962 1 7 298 139
	963 1 25 297 134
	964 1 73 298 139
	965 1 53 297 138
	966 1 5 1107 137
	967 1 70 1105 138
	968 1 33 1127 133
	969 1 16 1126 143
	970 1 1 1136 147
	971 1 57 1124 137
	972 1 69 1139 140
	973 1 87 1128 127
	974 1 83 1118 139
	975 1 50 1144 137
	976 1 83 1147 133
	977 1 12 1162 138
	978 1 25 1165 130
	979 1 86 1161 140
	980 1 39 1169 134
	981 1 57 1161 140
	982 1 76 1171 132
	983 1 86 1182 136
	984 1 41 1181 126
	985 1 63 1190 132
	986 1 10 1206 135
	987 1 4 1193 143
	988 1 86 1208 143
	989 1 0 1200 124
	990 1 23 1201 140
	991 1 51 1201 132
	992 1 73 1207 134
	993 1 79 1190 126
	994 1 19 1218 133
	995 1 36 1208 130
	996 1 48 1220 131
	997 1 34 1228 132
	998 1 69 1230 133
	999 1 22 1247 140
	1000 1 49 1242 137
	1001 1 88 1240 139
	1002 1 25 1265 139
	1003 1 11 1262 132
	1004 1 48 1257 131
	1005 1 37 1256 145
	1006 1 64 1258 138
	1007 1 35 1273 130
	1008 1 15 1279 134
	1009 1 83 1276 130
	1010 1 1 1301 142
	1011 1 87 1290 130
	1012 1 13 1294 131
	1013 1 27 1307 134
	1014 1 31 1291 137
	1015 1 10 1313 136
	1016 1 36 1317 143
	1017 1 61 1303 131
	1018 1 49 1324 136
	1019 1 70 1320 131
	1020 1 44 1342 138
	1021 1 31 1331 136
	1022 1 61 1338 133
	1023 1 2 1342 134
	1024 1 29 1353 134
	1025 1 18 1342 142
	1026 1 15 1356 128
	1027 1 67 1350 127
	1028 1 2 1367 137
	1029 1 26 1368 142
	1030 1 59 1363 136
	1031 1 78 1360 134
	1032 1 45 1376 149
	1033 1 43 1380 133
	1034 1 63 1378 137
	1035 1 3 1393 136
	1036 1 28 1385 141
	1037 1 28 1390 126
	1038 1 33 1 140
	1039 1 55 4 138
	1040 1 45 2 151
	1041 1 37 16 146
	1042 1 87 20 146
	1043 1 49 33 154
	1044 1 62 19 145
	1045 1 32 31 148
	1046 1 26 46 147
	1047 1 48 49 156
	1048 1 63 54 148
	1049 1 81 36 155
	1050 1 83 56 152
	1051 1 25 63 155
	1052 1 40 68 149
	1053 1 62 68 153
	1054 1 24 81 158
	1055 1 34 99 147
	1056 1 39 86 165
	1057 1 47 82 153
	1058 1 68 81 140
	1059 1 0 102 147
	1060 1 17 102 149
	1061 1 49 103 151
	1062 1 70 96 144
	1063 1 12 120 145
	1064 1 28 119 150
	1065 1 46 119 162
	1066 1 63 125 146
	1067 1 78 116 147
	1068 1 34 134 150
	1069 1 50 133 152
	1070 1 10 137 146
	1071 1 21 151 149
	1072 1 24 141 162
	1073 1 41 158 140
	1074 1 44 158 155
	1075 1 38 176 144
	1076 1 74 159 156
	1077 1 20 181 144
	1078 1 27 188 157
	1079 1 42 193 159
	1080 1 57 184 151
	1081 1 4 203 146
	1082 1 25 206 146
	1083 1 70 191 155
	1084 1 78 207 159
	1085 1 61 205 155
	1086 1 6 217 155
	1087 1 37 217 151
	1088 1 44 230 157
	1089 1 73 225 152
	1090 1 35 250 135
	1091 1 40 240 146
	1092 1 54 253 147
	1093 1 62 239 149
	1094 1 86 234 154
	1095 1 79 253 147
	1096 1 18 254 149
	1097 1 29 267 157
	1098 1 41 261 145
	1099 1 66 268 151
	1100 1 3 266 140
	1101 1 5 284 152
	1102 1 39 288 146
	1103 1 82 295 151
	1104 1 82 276 149
	1105 1 18 287 144
	1106 1 63 287 147
	1107 1 23 1108 138
	1108 1 25 1115 153
	1109 1 45 1108 140
	1110 1 61 1107 152
	1111 1 41 1124 146
	1112 1 58 1128 152
	1113 1 77 1140 154
	1114 1 26 1141 145
	1115 1 36 1155 146
	1116 1 54 1144 154
	1117 1 49 1162 156
	1118 1 71 1158 148
	1119 1 65 1153 163
	1120 1 27 1169 153
	1121 1 6 1176 146
	1122 1 21 1182 138
	1123 1 32 1182 158
	1124 1 44 1176 147
	1125 1 51 1192 145
	1126 1 43 1190 165
	1127 1 63 1178 141
	1128 1 77 1178 154
	1129 1 9 1209 157
	1130 1 18 1196 155
	1131 1 35 1193 145
	1132 1 54 1201 158
	1133 1 70 1193 150
	1134 1 81 1201 160
	1135 1 48 1213 148
	1136 1 32 1213 147
	1137 1 25 1214 160
	1138 1 56 1229 160
	1139 1 63 1212 146
	1140 1 76 1214 157
	1141 1 9 1223 149
	1142 1 24 1234 158
	1143 1 22 1230 143
	1144 1 40 1224 162
	1145 1 38 1233 147
	1146 1 56 1229 142
	1147 1 70 1229 151
	1148 1 87 1225 159
	1149 1 82 1223 138
	1150 1 39 1246 158
	1151 1 56 1245 151
	1152 1 9 1266 150
	1153 1 13 1251 152
	1154 1 62 1257 158
	1155 1 79 1258 156
	1156 1 36 1270 162
	1157 1 39 1279 147
	1158 1 49 1260 166
	1159 1 51 1268 144
	1160 1 84 1259 142
	1161 1 5 1279 155
	1162 1 20 1294 150
	1163 1 22 1279 155
	1164 1 41 1291 160
	1165 1 81 1277 146
	1166 1 1 1296 156
	1167 1 52 1291 142
	1168 1 77 1308 143
	1169 1 73 1292 145
	1170 1 17 1310 153
	1171 1 41 1304 150
	1172 1 60 1304 149
	1173 1 13 1326 143
	1174 1 59 1317 157
	1175 1 61 1328 147
	1176 1 31 1347 152
	1177 1 58 1344 151
	1178 1 81 1330 139
	1179 1 76 1345 144
	1180 1 6 1351 147
	1181 1 54 1360 160
	1182 1 69 1358 152
	1183 1 13 1365 150
	1184 1 45 1359 145
	1185 1 74 1389 140
	1186 1 78 1370 147
	1187 1 89 1381 146
	1188 1 14 1391 148
	1189 1 31 1385 156
	1190 1 56 1390 149
	1191 1 88 2 149
	1192 1 21 9 152
	1193 1 25 4 166
	1194 1 56 6 164
	1195 1 73 14 164
	1196 1 89 18 162
	1197 1 16 26 158
	1198 1 39 16 163
	1199 1 57 22 162
	1200 1 81 46 170
	1201 1 11 70 164
	1202 1 12 52 157
	1203 1 41 61 165
	1204 1 70 59 165
	1205 1 7 74 147
	1206 1 8 88 157
	1207 1 75 95 171
	1208 1 80 77 160
	1209 1 63 86 158
	1210 1 57 86 174
	1211 1 81 92 154
	1212 1 3 101 168
	1213 1 30 108 160
	1214 1 18 99 167
	1215 1 67 106 155
	1216 1 55 101 165
	1217 1 21 125 165
	1218 1 68 111 173
	1219 1 66 122 160
	1220 1 87 113 159
	1221 1 6 125 160
	1222 1 70 132 171
	1223 1 2 141 160
	1224 1 58 151 156
	1225 1 38 149 165
	1226 1 69 142 160
	1227 1 5 165 158
	1228 1 53 171 160
	1229 1 72 174 160
	1230 1 8 181 154
	1231 1 17 181 170
	1232 1 35 171 162
	1233 1 86 193 158
	1234 1 85 181 169
	1235 1 16 201 159
	1236 1 49 208 163
	1237 1 33 208 164
	1238 1 19 221 163
	1239 1 57 224 167
	1240 1 71 223 169
	1241 1 25 246 176
	1242 1 24 236 155
	1243 1 55 240 169
	1244 1 72 242 163
	1245 1 7 248 172
	1246 1 34 250 159
	1247 1 44 250 171
	1248 1 6 247 155
	1249 1 80 256 170
	1250 1 6 264 174
	1251 1 22 260 170
	1252 1 60 257 162
	1253 1 85 276 170
	1254 1 86 263 158
	1255 1 14 271 152
	1256 1 16 279 168
	1257 1 46 272 156
	1258 1 46 283 165
	1259 1 72 280 160
	1260 1 12 296 161
	1261 1 30 285 159
	1262 1 26 296 169
	1263 1 53 298 154
	1264 1 87 295 165
	1265 1 25 1101 166
	1266 1 42 1109 158
	1267 1 71 1108 168
	1268 1 9 1122 157
	1269 1 29 1113 176
	1270 1 47 1115 171
	1271 1 88 1109 155
	1272 1 34 1126 161
	1273 1 56 1126 166
	1274 1 70 1126 171
	1275 1 75 1122 153
	1276 1 14 1139 159
	1277 1 24 1156 159
	1278 1 38 1141 158
	1279 1 9 1154 152
	1280 1 85 1162 158
	1281 1 88 1178 171
	1282 1 17 1175 175
	1283 1 12 1175 160
	1284 1 62 1180 173
	1285 1 74 1168 171
	1286 1 2 1191 163
	1287 1 20 1192 170
	1288 1 59 1178 158
	1289 1 65 1197 169
	1290 1 38 1206 166
	1291 1 57 1213 168
	1292 1 51 1224 181
	1293 1 70 1221 172
	1294 1 12 1232 168
	1295 1 39 1233 174
	1296 1 3 1241 154
	1297 1 25 1246 170
	1298 1 59 1240 170
	1299 1 75 1242 157
	1300 1 24 1260 160
	1301 1 71 1270 167
	1302 1 66 1273 149
	1303 1 56 1280 160
	1304 1 48 1277 173
	1305 1 67 1292 162
	1306 1 83 1282 166
	1307 1 49 1302 170
	1308 1 6 1304 168
	1309 1 26 1300 167
	1310 1 31 1313 180
	1311 1 9 1329 157
	1312 1 28 1331 154
	1313 1 27 1318 164
	1314 1 43 1318 161
	1315 1 54 1326 170
	1316 1 71 1308 169
	1317 1 89 1318 163
	1318 1 76 1322 155
	1319 1 35 1338 170
	1320 1 46 1337 157
	1321 1 86 1340 156
	1322 1 68 1347 164
	1323 1 4 1374 170
	1324 1 2 1359 160
	1325 1 33 1363 158
	1326 1 17 1377 158
	1327 1 43 1373 166
	1328 1 65 1377 154
	1329 1 65 1374 169
	1330 1 84 1382 161
	1331 1 11 1395 165
	1332 1 39 1393 164
	1333 1 54 1386 167
	1334 1 70 1 153
	1335 1 85 1398 164
	1336 1 12 15 172
	1337 1 35 6 179
	1338 1 58 0 183
	1339 1 61 17 181
	1340 1 88 2 180
	1341 1 46 21 178
	1342 1 30 26 181
	1343 1 73 28 190
	1344 1 64 33 171
	1345 1 86 17 181
	1346 1 80 29 171
	1347 1 30 34 165
	1348 1 59 48 170
	1349 1 45 38 176
	1350 1 20 52 183
	1351 1 13 41 168
	1352 1 5 52 187
	1353 1 4 35 178
	1354 1 33 49 173
	1355 1 5 68 187
	1356 1 0 60 169
	1357 1 25 66 173
	1358 1 78 63 180
	1359 1 1 82 173
	1360 1 16 82 179
	1361 1 34 74 182
	1362 1 56 69 168
	1363 1 47 68 182
	1364 1 30 90 176
	1365 1 73 78 175
	1366 1 36 111 174
	1367 1 47 101 176
	1368 1 70 101 187
	1369 1 8 116 182
	1370 1 24 117 179
	1371 1 82 118 173
	1372 1 75 123 187
	1373 1 1 131 177
	1374 1 15 136 183
	1375 1 35 132 176
	1376 1 75 141 187
	1377 1 49 153 177
	1378 1 55 133 182
	1379 1 49 135 168
	1380 1 81 147 172
	1381 1 85 162 172
	1382 1 11 149 172
	1383 1 11 157 187
	1384 1 20 162 164
	1385 1 28 154 178
	1386 1 65 156 175
	1387 1 5 174 180
	1388 1 29 170 179
	1389 1 51 170 176
	1390 1 27 191 178
	1391 1 41 184 172
	1392 1 49 189 185
	1393 1 61 197 172
	1394 1 66 183 172
	1395 1 78 195 179
	1396 1 6 197 172
	1397 1 3 213 174
	1398 1 23 208 175
	1399 1 35 210 189
	1400 1 47 220 179
	1401 1 46 204 178
	1402 1 74 209 176
	1403 1 11 242 192
	1404 1 23 224 186
	1405 1 34 227 172
	1406 1 15 233 174
	1407 1 78 225 186
	1408 1 36 239 185
	1409 1 88 229 169
	1410 1 86 241 180
	1411 1 48 263 176
	1412 1 65 252 178
	1413 1 14 270 189
	1414 1 30 271 178
	1415 1 41 281 181
	1416 1 63 270 170
	1417 1 61 288 166
	1418 1 56 276 185
	1419 1 74 274 182
	1420 1 87 264 190
	1421 1 7 284 181
	1422 1 31 292 183
	1423 1 59 294 181
	1424 1 73 295 173
	1425 1 67 288 193
	1426 1 18 299 185
	1427 1 9 1107 168
	1428 1 64 1108 185
	1429 1 47 1107 186
	1430 1 82 1105 180
	1431 1 13 1122 174
	1432 1 85 1122 171
	1433 1 58 1143 174
	1434 1 73 1140 182
	1435 1 0 1156 174
	1436 1 11 1139 174
	1437 1 15 1159 174
	1438 1 18 1145 189
	1439 1 27 1149 174
	1440 1 43 1146 184
	1441 1 47 1132 178
	1442 1 29 1133 174
	1443 1 83 1143 167
	1444 1 45 1161 187
	1445 1 41 1156 168
	1446 1 62 1158 183
	1447 1 78 1158 185
	1448 1 5 1173 185
	1449 1 32 1170 176
	1450 1 51 1168 172
	1451 1 29 1190 182
	1452 1 45 1184 180
	1453 1 36 1207 181
	1454 1 54 1198 181
	1455 1 79 1194 177
	1456 1 5 1207 177
	1457 1 78 1212 183
	1458 1 11 1240 182
	1459 1 86 1227 175
	1460 1 5 1223 187
	1461 1 18 1216 174
	1462 1 27 1228 182
	1463 1 74 1237 176
	1464 1 4 1264 169
	1465 1 20 1263 176
	1466 1 56 1251 182
	1467 1 73 1259 177
	1468 1 88 1248 170
	1469 1 87 1273 184
	1470 1 9 1285 173
	1471 1 25 1281 172
	1472 1 37 1281 184
	1473 1 58 1279 185
	1474 1 72 1286 178
	1475 1 21 1296 183
	1476 1 58 1296 186
	1477 1 84 1297 180
	1478 1 7 1313 181
	1479 1 17 1324 175
	1480 1 80 1320 182
	1481 1 9 1344 196
	1482 1 13 1340 168
	1483 1 22 1335 185
	1484 1 23 1351 187
	1485 1 64 1334 188
	1486 1 66 1331 173
	1487 1 2 1338 180
	1488 1 81 1333 170
	1489 1 0 1360 192
	1490 1 10 1359 180
	1491 1 19 1352 165
	1492 1 53 1346 175
	1493 1 83 1353 170
	1494 1 79 1347 186
	1495 1 23 1367 173
	1496 1 46 1360 182
	1497 1 36 1353 173
	1498 1 78 1368 171
	1499 1 67 1356 180
	1500 1 7 1378 184
	1501 1 22 1385 173
	1502 1 8 1394 186
	1503 1 43 1394 179
	1504 1 73 5 186
	1505 1 70 1393 169
	1506 1 76 1386 182
	1507 1 20 12 185
	1508 1 12 1 199
	1509 1 43 11 192
	1510 1 2 25 194
	1511 1 14 18 198
	1512 1 22 37 188
	1513 1 58 38 189
	1514 1 1 40 195
	1515 1 35 50 193
	1516 1 51 54 187
	1517 1 72 50 187
	1518 1 14 81 196
	1519 1 23 66 192
	1520 1 78 74 192
	1521 1 61 72 187
	1522 1 86 87 189
	1523 1 10 101 194
	1524 1 22 101 204
	1525 1 38 87 190
	1526 1 37 93 206
	1527 1 89 102 183
	1528 1 23 101 186
	1529 1 50 99 190
	1530 1 31 112 197
	1531 1 43 117 190
	1532 1 63 118 199
	1533 1 57 116 182
	1534 1 15 121 197
	1535 1 27 135 192
	1536 1 87 127 197
	1537 1 2 144 190
	1538 1 38 147 188
	1539 1 47 147 204
	1540 1 60 148 192
	1541 1 59 166 196
	1542 1 43 164 192
	1543 1 72 155 202
	1544 1 18 171 191
	1545 1 70 170 182
	1546 1 82 164 190
	1547 1 13 185 192
	1548 1 34 182 190
	1549 1 61 181 189
	1550 1 54 186 203
	1551 1 70 189 199
	1552 1 84 184 190
	1553 1 2 199 190
	1554 1 18 202 189
	1555 1 52 204 196
	1556 1 7 220 189
	1557 1 66 207 190
	1558 1 83 209 197
	1559 1 57 230 186
	1560 1 74 244 187
	1561 1 38 260 191
	1562 1 50 246 191
	1563 1 64 262 192
	1564 1 27 281 195
	1565 1 48 281 198
	1566 1 12 290 197
	1567 1 84 291 185
	1568 1 81 279 199
	1569 1 40 296 198
	1570 1 21 1104 191
	1571 1 1 1101 198
	1572 1 5 1117 187
	1573 1 33 1112 198
	1574 1 66 1124 192
	1575 1 80 1117 193
	1576 1 13 1132 198
	1577 1 89 1136 184
	1578 1 32 1140 196
	1579 1 26 1124 187
	1580 1 34 1126 204
	1581 1 46 1123 190
	1582 1 61 1139 194
	1583 1 85 1134 199
	1584 1 2 1152 194
	1585 1 49 1146 202
	1586 1 15 1162 193
	1587 1 31 1159 195
	1588 1 24 1178 192
	1589 1 47 1174 194
	1590 1 79 1161 201
	1591 1 86 1176 198
	1592 1 15 1189 202
	1593 1 37 1193 199
	1594 1 77 1184 206
	1595 1 70 1180 188
	1596 1 3 1190 186
	1597 1 4 1203 196
	1598 1 22 1205 190
	1599 1 75 1199 194
	1600 1 61 1211 191
	1601 1 58 1191 197
	1602 1 44 1211 193
	1603 1 31 1223 196
	1604 1 25 1246 190
	1605 1 61 1230 192
	1606 1 72 1247 190
	1607 1 80 1232 195
	1608 1 0 1250 186
	1609 1 14 1260 192
	1610 1 40 1250 180
	1611 1 35 1264 188
	1612 1 16 1276 192
	1613 1 61 1265 190
	1614 1 38 1286 199
	1615 1 72 1287 196
	1616 1 8 1295 193
	1617 1 41 1300 187
	1618 1 27 1314 196
	1619 1 54 1310 199
	1620 1 81 1304 196
	1621 1 11 1311 198
	1622 1 7 1327 192
	1623 1 50 1319 184
	1624 1 70 1327 202
	1625 1 68 1311 190
	1626 1 39 1331 186
	1627 1 31 1358 197
	1628 1 40 1343 199
	1629 1 54 1346 193
	1630 1 72 1348 201
	1631 1 12 1360 205
	1632 1 34 1373 182
	1633 1 43 1375 196
	1634 1 47 1362 204
	1635 1 58 1369 182
	1636 1 77 1371 189
	1637 1 62 1359 199
	1638 1 64 1374 200