ITEM: TIMESTEP
0
ITEM: NUMBER OF ATOMS
7500
ITEM: BOX BOUNDS pp pp pp
0.0000000000000000e+00 9.0000000000000000e+01
0.0000000000000000e+00 1.4000000000000000e+03
0.0000000000000000e+00 3.0000000000000000e+02
ITEM: ATOMS id xs ys zs 
2162 0.207533 0.00446446 0.0341022 
6072 0.328733 0.00922507 0.0456735 
74 0.465401 0.00238017 0.003516 
1037 0.0014886 0.0189225 0.0296333 
6683 0.0975791 0.0116634 0.0265152 
6670 0.328971 0.0170775 0.0208304 
6896 0.238235 0.0134486 0.0303496 
752 0.638782 0.0152334 0.0272264 
5309 0.745405 0.0185644 0.012251 
954 0.942941 0.0163635 0.0219576 
4487 0.631464 0.0206473 0.019139 
4542 0.978939 0.0230857 0.00144419 
1671 0.313979 0.0377823 0.00697995 
143 0.897009 0.0360568 0.00611039 
612 0.476054 0.0478967 0.000416088 
4621 0.432799 0.0479568 0.00975945 
4087 0.513956 0.0523618 0.0444499 
4155 0.994827 0.0491471 0.0152585 
5143 0.904389 0.0584877 0.00345244 
2619 0.318502 0.0645577 0.0208801 
1916 0.346169 0.0650941 0.0359888 
3574 0.768255 0.0622372 0.0199611 
5487 0.815319 0.0651527 0.0213756 
4179 0.113469 0.0779445 0.0130227 
6216 0.213784 0.0717578 0.0331486 
2454 0.358545 0.0733032 0.00626981 
3951 0.380858 0.0727688 0.0252372 
2970 0.857802 0.0712222 0.0315874 
4431 0.960438 0.0761601 0.022047 
3260 0.65741 0.0827059 0.0387832 
6556 0.830611 0.0789555 0.00589391 
819 0.742196 0.0927593 0.00520403 
1649 0.257102 0.107338 0.0246968 
6205 0.240858 0.101508 0.0377006 
31 0.363961 0.0983526 0.0119984 
199 0.095087 0.126555 0.0126951 
1137 0.0145844 0.120367 0.00631307 
6113 0.103536 0.125663 0.0225213 
118 0.782717 0.118047 0.015451 
2984 0.687994 0.119476 0.0385697 
5484 0.858875 0.11775 0.0188308 
3577 0.480046 0.128756 0.00865478 
657 0.840134 0.139884 0.0278016 
3044 0.169343 0.151188 0.0164998 
3793 0.46547 0.152199 0.00919884 
1355 0.29209 0.163326 0.0172713 
7213 0.337726 0.157257 0.0198478 
6147 0.758979 0.158981 0.00108887 
3857 0.969189 0.163801 0.00789259 
7429 0.293995 0.171298 0.00170771 
188 0.389967 0.169872 0.0386329 
1936 0.71019 0.170348 0.0421207 
532 0.985136 0.173144 0.0347958 
1693 0.993049 0.16886 0.0254445 
5719 0.894876 0.176001 0.0431144 
5774 0.161491 0.18439 0.0357828 
1712 0.455892 0.184805 0.0175929 
3516 0.457202 0.185817 0.0238159 
539 0.654203 0.184152 0.0463145 
3554 0.561562 0.17731 0.0463725 
6338 0.626893 0.186175 0.0424269 
2676 0.130909 0.189326 0.000869289 
246 0.378306 0.188257 0.0304846 
4594 0.382471 0.192124 0.0349145 
5808 0.320593 0.201465 0.0237894 
1087 0.420015 0.200393 0.00794914 
4686 0.07397 0.21295 0.0455032 
1966 0.312263 0.210212 0.0335113 
2622 0.336539 0.208366 0.0109027 
838 0.643316 0.206762 0.0431048 
2451 0.0800395 0.223897 0.0390617 
6585 0.11919 0.219671 0.00465681 
3186 0.194813 0.221279 0.0399416 
2756 0.396574 0.216222 0.0409225 
5334 0.713109 0.216459 0.0274872 
1161 0.552462 0.231154 0.00229663 
1519 0.387829 0.240318 0.0200783 
7101 0.364922 0.236154 0.0373183 
127 0.744407 0.240676 0.0373901 
3100 0.928377 0.235677 0.0187256 
4100 0.939207 0.244304 0.0114434 
6303 0.901127 0.242817 0.0183558 
2131 0.193387 0.252217 0.0153609 
4262 0.316014 0.252039 0.0200451 
1102 0.543895 0.25091 0.042931 
6658 0.767969 0.248292 0.0472388 
2585 0.90678 0.254063 0.0341815 
6767 0.986806 0.249125 0.0398557 
2289 0.0015626 0.262572 0.0418582 
2490 0.157747 0.256561 0.0286711 
911 0.732806 0.264295 0.00582642 
2016 0.830324 0.256621 0.0246627 
4097 0.968422 0.263879 0.00705658 
705 0.0169135 0.264712 0.0128766 
55 0.401575 0.270246 0.0233741 
5718 0.752322 0.271853 0.0257568 
4933 0.00281327 0.282681 0.0224798 
1838 0.44501 0.282861 0.0386608 
4656 0.993055 0.275838 0.0154706 
1996 0.000849908 0.284407 0.0355585 
5540 0.583584 0.290773 0.024202 
5509 0.772255 0.288511 0.000303534 
1375 0.972945 0.292916 0.0353775 
1030 0.450723 0.301126 0.021687 
1674 0.418296 0.30309 0.0327881 
3994 0.879651 0.301068 0.0429134 
5015 0.897204 0.302494 0.0119832 
3028 0.191546 0.313265 0.0404826 
2513 0.94159 0.304459 0.0438242 
4899 0.86204 0.312251 0.00341587 
2425 0.483449 0.321593 0.0184465 
4756 0.342436 0.314158 0.0459647 
7202 0.914281 0.317963 0.00587179 
4678 0.0212014 0.332064 0.00745279 
1266 0.341008 0.324747 0.0231349 
1859 0.778921 0.32564 0.0288831 
5862 0.111343 0.334149 0.0438696 
6586 0.266933 0.338076 0.0425537 
3812 0.0958735 0.346107 0.0167989 
6528 0.589775 0.350093 0.00843791 
2311 0.850916 0.347951 0.0201702 
629 0.0818324 0.35664 0.0433078 
4139 0.539796 0.354497 0.0301366 
4270 0.609173 0.362231 0.0223655 
544 0.796118 0.358544 0.0445726 
5520 0.978542 0.359198 0.0471251 
5843 0.850441 0.353605 0.0364801 
6876 0.392596 0.363423 0.0438303 
3844 0.578114 0.365981 0.0397351 
3556 0.94088 0.371453 0.0105622 
2059 0.229808 0.381569 0.0366186 
2803 0.422108 0.374249 0.000756265 
1012 0.714546 0.376273 0.0225782 
2262 0.152519 0.390376 0.0419173 
1064 0.471136 0.388352 0.0264425 
6234 0.654334 0.389005 0.00352799 
6965 0.586088 0.389244 0.0212025 
3918 0.68212 0.385555 0.0215113 
2592 0.919045 0.388115 0.0449493 
3997 0.195894 0.395909 0.0377013 
2267 0.568299 0.400251 0.0229226 
4797 0.733944 0.397514 0.0149535 
4466 0.982412 0.401203 0.0146368 
1781 0.363444 0.408343 0.0289336 
5874 0.373916 0.409058 0.0385834 
7158 0.496663 0.40876 0.0258095 
1201 0.85443 0.410665 0.0383051 
1065 0.418719 0.413699 0.0325167 
2638 0.814804 0.414949 0.0395014 
5119 0.743168 0.424052 0.0392602 
2375 0.182093 0.438689 0.0426528 
6104 0.253789 0.435297 0.0432838 
6109 0.629287 0.434046 0.00865634 
7183 0.50315 0.440414 0.0445242 
5589 0.680338 0.437202 0.0475538 
1455 0.321381 0.449755 0.0346513 
2002 0.452338 0.442794 0.0455983 
5283 0.615306 0.449101 0.0418113 
7017 0.606441 0.447553 0.0160264 
3473 0.818079 0.449398 0.0319278 
5103 0.994969 0.445769 0.0428948 
6193 0.889358 0.446423 0.0278928 
7139 0.891739 0.449516 0.0182603 
712 0.32513 0.455049 0.00278996 
2119 0.454659 0.460047 0.0100202 
6730 0.506721 0.457788 0.0420567 
3680 0.925653 0.452074 0.00726224 
681 0.0532795 0.468079 0.00919229 
49 0.284254 0.461356 0.0122295 
895 0.481137 0.466237 0.0447102 
1745 0.398731 0.46463 0.0405039 
4313 0.453886 0.466771 0.0264472 
329 0.669391 0.462426 0.000160901 
1051 0.679804 0.468198 0.00541734 
2653 0.697832 0.461357 0.024556 
3766 0.756736 0.46433 0.00209871 
6155 0.730676 0.465105 0.0122089 
1530 0.230825 0.470697 0.00623843 
942 0.365412 0.473674 0.0316238 
1198 0.530878 0.472959 0.0269907 
2249 0.952965 0.474626 0.0398047 
6187 0.951715 0.476469 0.0226788 
5181 0.3597 0.480515 0.021822 
6268 0.37993 0.483134 0.0381366 
1499 0.580085 0.48129 0.0427403 
4226 0.655173 0.487716 0.0419873 
2599 0.92619 0.482123 0.0441462 
6151 0.916908 0.480873 0.0406286 
2656 0.938627 0.498423 0.00230464 
4708 0.87883 0.49313 0.027897 
1561 0.996342 0.516035 0.0048095 
3022 0.813502 0.52871 0.0349415 
3704 0.799936 0.526507 0.00344225 
1940 0.181266 0.53091 7.30981e-05 
460 0.794522 0.539063 0.0367857 
6583 0.0379337 0.551974 0.033079 
6410 0.175138 0.551559 0.0467609 
6615 0.305026 0.565479 0.00543387 
2815 0.502919 0.561971 0.0466941 
3214 0.790656 0.559114 0.0323961 
5008 0.986468 0.561554 0.0299941 
7446 0.897755 0.565362 0.0349889 
3150 0.178829 0.576427 0.0131033 
2146 0.790241 0.57631 0.044748 
7090 0.680762 0.5728 0.0474399 
4330 0.564085 0.579225 0.0264948 
6613 0.657261 0.581962 0.0324134 
4276 0.707716 0.57851 0.012298 
2389 0.911679 0.5844 0.0026347 
6827 0.0096147 0.594278 0.0368985 
7499 0.0202052 0.58934 0.031874 
4256 0.0407928 0.605404 0.0284729 
839 0.461629 0.602904 0.00313967 
2782 0.386244 0.602965 0.0281593 
2922 0.447111 0.60231 0.0289408 
5074 0.394752 0.600584 0.0236102 
226 0.765253 0.604868 0.00909891 
5500 0.231488 0.613733 0.0097787 
4115 0.616387 0.612781 0.0182053 
6970 0.688916 0.610522 0.044153 
2103 0.301519 0.624145 0.00685532 
3173 0.186923 0.621946 0.043649 
6874 0.18621 0.62355 0.012167 
4548 0.645006 0.619088 0.0161479 
4970 0.906148 0.622183 0.0266605 
4609 0.14819 0.631047 0.00226457 
1576 0.425218 0.630869 0.0229615 
53 0.718369 0.635688 0.000502376 
2440 0.954104 0.629203 0.0155556 
3153 0.62936 0.646577 0.0266356 
3167 0.933221 0.64384 0.0211396 
4672 0.787687 0.650326 0.031256 
2047 0.890084 0.649016 0.0118052 
2932 0.877947 0.652408 0.0232817 
299 0.0234226 0.663893 0.0461224 
4073 0.823149 0.657882 0.0219706 
4354 0.162234 0.668474 0.0393214 
864 0.282363 0.668828 2.50638e-05 
1377 0.313421 0.67127 0.0290459 
3513 0.581762 0.668593 0.0412988 
5711 0.824994 0.674065 0.0117423 
1985 0.146646 0.684598 0.0347451 
3865 0.116659 0.682039 0.0277503 
6803 0.137543 0.677576 0.0212908 
6431 0.10345 0.688703 0.0269293 
1651 0.254102 0.693702 0.0469948 
2536 0.353049 0.687632 0.0245347 
4272 0.759784 0.690727 0.0475617 
6884 0.790069 0.691557 0.00526514 
4722 0.357155 0.704054 0.0377725 
2429 0.837431 0.697151 0.013163 
1010 0.208765 0.711551 0.0293493 
3789 0.252973 0.711313 0.0341208 
5503 0.652212 0.719701 0.0110425 
623 0.805838 0.722975 0.0353177 
1533 0.336213 0.733625 0.0396519 
6777 0.520838 0.729222 0.0367834 
155 0.687614 0.726663 0.0270807 
5383 0.0284848 0.744095 0.000279772 
3046 0.192405 0.742906 0.0227757 
2045 0.34133 0.735648 0.0406479 
6501 0.467409 0.744214 0.00107542 
6293 0.59908 0.737433 0.0341202 
3589 0.119519 0.75433 0.0292137 
3367 0.316282 0.748022 0.00704851 
2198 0.534762 0.746773 0.0122495 
7068 0.8153 0.752129 0.036001 
3332 0.93293 0.758495 0.029176 
2982 0.11006 0.771703 0.0206808 
7016 0.286176 0.766229 0.0141968 
6141 0.850763 0.773131 0.00863564 
84 0.128624 0.77587 0.0452649 
5349 0.0523461 0.781163 0.00738514 
2031 0.16825 0.781165 0.0463213 
5160 0.328898 0.782593 0.0393555 
747 0.489783 0.783663 0.0244068 
5905 0.357695 0.781046 0.0383098 
5311 0.70386 0.77575 0.023432 
3530 0.160456 0.785447 0.0112815 
3901 0.065377 0.791815 0.0363802 
2285 0.625382 0.788245 0.0323272 
3785 0.657749 0.79342 0.00588435 
1267 0.828511 0.791398 0.0321006 
3406 0.039079 0.801274 0.0106798 
1959 0.338657 0.8008 0.0392331 
4854 0.102743 0.807225 0.0384644 
4682 0.648766 0.806689 0.0255236 
6691 0.156293 0.822457 0.028719 
6024 0.180807 0.818946 0.031317 
2836 0.368705 0.818172 0.0250653 
3503 0.663879 0.814603 0.0286742 
2303 0.833035 0.819183 0.0143755 
2209 0.570883 0.831858 0.0352175 
3035 0.00492886 0.839293 0.00235389 
6475 0.323427 0.835488 0.0406546 
5007 0.360316 0.839177 0.0451589 
3502 0.593136 0.835426 0.00218146 
3245 0.367278 0.846317 0.0414943 
2974 0.785497 0.852147 0.0282087 
587 0.0396773 0.856131 0.000156617 
1292 0.272795 0.860059 0.0163092 
5815 0.431478 0.855003 0.0392822 
7124 0.476043 0.855658 0.0377259 
479 0.312659 0.868151 0.0191114 
5747 0.238167 0.87065 0.0140627 
4793 0.0422371 0.879217 0.00298608 
3038 0.229778 0.879398 0.0459802 
3097 0.441535 0.87797 0.034695 
827 0.89462 0.878565 0.0382584 
54 0.443439 0.885049 0.0238235 
3378 0.690598 0.883978 0.0106833 
3668 0.929844 0.885703 0.0147147 
3095 0.236443 0.893557 0.0111516 
3136 0.2985 0.89344 0.0387422 
3451 0.52299 0.897426 0.0371119 
1539 0.908127 0.89445 0.0200069 
4037 0.00499215 0.903077 0.0131317 
6330 0.000113741 0.911645 0.0255185 
727 0.247867 0.903078 0.040297 
6923 0.215857 0.911169 0.021655 
2842 0.489195 0.905337 0.00127933 
6807 0.482353 0.907422 0.0436051 
4223 0.792819 0.902245 0.0338274 
6146 0.275535 0.917655 0.0341976 
1453 0.94954 0.919499 0.014262 
1313 0.321647 0.922713 0.037482 
6987 0.177303 0.924915 0.04713 
840 0.768426 0.935861 0.0127092 
3517 0.273097 0.945916 0.00640497 
1726 0.731418 0.949071 0.0426806 
1714 0.940319 0.94312 0.0156395 
6482 0.19212 0.952879 0.0295339 
2234 0.350923 0.959959 0.0232252 
88 0.630925 0.951748 0.0286746 
3017 0.817454 0.953712 0.044996 
620 0.949721 0.956388 0.0168086 
4596 0.134109 0.96805 0.0182637 
5646 0.0588427 0.969955 0.0418101 
6297 0.450406 0.968527 0.0397444 
841 0.604329 0.961088 0.00934747 
4567 0.507941 0.965849 0.0313513 
722 0.724636 0.962636 0.028746 
1536 0.351697 0.975727 0.0464013 
3396 0.541142 0.976617 0.00676444 
3989 0.594572 0.972692 0.0369049 
4605 0.536144 0.974357 0.0152436 
577 0.64003 0.988103 0.0457588 
3711 0.520794 0.982391 0.0433498 
5319 0.663711 0.983461 0.0230401 
944 0.764918 0.981379 0.0306466 
5577 0.870886 0.986853 0.038101 
7471 0.0558096 0.991256 0.0358041 
360 0.292735 0.994943 0.000683577 
3701 0.296959 0.994943 0.00325063 
6687 0.306241 0.992624 0.0255368 
5967 0.380615 0.992922 0.0339671 
4799 0.563872 0.996313 0.0270829 
6288 0.969417 0.991851 0.0339047 
5708 0.145952 0.00797572 0.0478848 
5194 0.645326 0.000421485 0.0838973 
6138 0.267984 0.0104169 0.0766082 
11 0.618612 0.0180916 0.0651679 
5067 0.64146 0.0138669 0.0616145 
6096 0.526508 0.0165436 0.0480859 
2522 0.705005 0.0113687 0.0729791 
6750 0.895104 0.0130347 0.0745074 
7173 0.867318 0.0114288 0.0831129 
1980 0.0945455 0.0266008 0.0802874 
3203 0.146667 0.0276119 0.0729238 
6370 0.771704 0.0266602 0.0772103 
1240 0.900103 0.0292183 0.0717533 
795 0.520142 0.0325489 0.0501099 
5235 0.519369 0.0348123 0.0899977 
6470 0.72952 0.0379038 0.0491458 
6437 0.843222 0.037728 0.0947227 
7266 0.969836 0.032789 0.0842432 
6232 0.406679 0.0459382 0.0830748 
1 0.641283 0.0487922 0.049812 
1953 0.704471 0.0488532 0.075669 
6980 0.192245 0.0580153 0.0637887 
888 0.470224 0.05867 0.0669751 
2584 0.789674 0.0505779 0.0620519 
4238 0.149466 0.0668225 0.0863523 
6008 0.00357379 0.0647388 0.0642264 
4761 0.275841 0.0656924 0.0920202 
4248 0.339922 0.0623605 0.0921568 
7474 0.358605 0.0681912 0.0898986 
1057 0.832395 0.0589665 0.0502044 
4774 0.638548 0.0780061 0.0490696 
1360 0.661813 0.0850892 0.0937889 
231 0.741006 0.0881212 0.052594 
823 0.756475 0.0791375 0.0640242 
5776 0.681031 0.0805068 0.07805 
1323 0.0330871 0.0956788 0.0732679 
1790 0.0431421 0.0887171 0.0681787 
1840 0.29524 0.0969274 0.0581509 
3273 0.230267 0.091991 0.0924304 
6006 0.249366 0.0922871 0.0691247 
6251 0.248295 0.0967484 0.0505711 
1020 0.440596 0.0962134 0.0579711 
7421 0.787832 0.090682 0.0920525 
658 0.260909 0.101391 0.0823762 
2687 0.361225 0.105316 0.0493244 
7134 0.366758 0.102759 0.076883 
958 0.758381 0.105259 0.0845913 
1562 0.83323 0.104959 0.0501228 
3560 0.498311 0.117277 0.0686405 
4928 0.409419 0.110077 0.0665541 
1958 0.899275 0.117276 0.0510703 
2812 0.877201 0.112099 0.0522731 
5968 0.884519 0.113886 0.0751256 
6166 0.953181 0.114005 0.0843581 
4367 0.296789 0.1265 0.0885183 
5122 0.985073 0.122274 0.0613684 
699 0.316185 0.128699 0.049455 
515 0.47951 0.129355 0.0737491 
3752 0.59839 0.132986 0.0887422 
5388 0.965736 0.131438 0.0711046 
4975 0.257877 0.142563 0.0508143 
5161 0.447382 0.155535 0.0833267 
7270 0.913914 0.151191 0.06878 
7299 0.0340428 0.158034 0.07431 
6088 0.382291 0.163805 0.066246 
4016 0.600117 0.160058 0.0919684 
1463 0.784563 0.157975 0.090872 
2562 0.151614 0.171421 0.0790766 
110 0.37527 0.166841 0.0912309 
637 0.503075 0.178561 0.075404 
5238 0.632009 0.182547 0.0731398 
6860 0.948068 0.185761 0.0900909 
7367 0.591372 0.190462 0.0905813 
6383 0.46226 0.200755 0.0843579 
4296 0.734111 0.196826 0.0564032 
4853 0.985078 0.201767 0.0906826 
5439 0.84823 0.204741 0.0882217 
2892 0.306314 0.213842 0.0504609 
5726 0.636533 0.211522 0.0491585 
546 0.262761 0.217235 0.0743422 
2244 0.303339 0.218424 0.0575438 
5390 0.423467 0.217355 0.0783701 
5528 0.487786 0.220983 0.0583558 
5616 0.935813 0.216282 0.0559322 
7087 0.133708 0.233538 0.0669444 
4384 0.464522 0.22866 0.093905 
6287 0.596194 0.23455 0.0866288 
4946 0.741134 0.234965 0.0517217 
5544 0.076173 0.238892 0.061261 
2196 0.58364 0.243297 0.0937836 
4444 0.580487 0.239548 0.0797089 
192 0.0682601 0.246926 0.0772129 
4769 0.833893 0.2474 0.0567911 
767 0.305721 0.258529 0.0901115 
6835 0.576918 0.255256 0.0924068 
70 0.784094 0.26293 0.0586378 
3373 0.81783 0.263347 0.0728726 
2287 0.0524942 0.269714 0.077881 
2093 0.208977 0.270842 0.0477166 
3274 0.478269 0.267393 0.0772125 
4725 0.409726 0.2712 0.0555585 
6071 0.392174 0.270071 0.0849247 
1191 0.644331 0.268403 0.0520126 
3241 0.577335 0.265132 0.0692641 
1131 0.114076 0.276854 0.0870281 
2193 0.0757591 0.28316 0.062822 
301 0.662241 0.282445 0.0583612 
2401 0.604764 0.2762 0.0914802 
6333 0.9022 0.282684 0.0669414 
1716 0.269488 0.286373 0.0702797 
1784 0.505937 0.290955 0.0764939 
1817 0.562045 0.285421 0.063351 
5140 0.725251 0.293217 0.0944991 
2354 0.860373 0.289349 0.0876352 
6486 0.87745 0.293869 0.0601581 
3868 0.551098 0.300831 0.0675717 
2995 0.387536 0.309697 0.0820103 
664 0.647189 0.311361 0.049846 
3845 0.828542 0.307258 0.0823305 
7002 0.943554 0.312195 0.0599314 
7349 0.0320296 0.321595 0.0479675 
4748 0.107534 0.332246 0.0537888 
7341 0.0257829 0.333317 0.0544302 
6347 0.71496 0.327725 0.0698471 
3807 0.988774 0.327188 0.0545271 
122 0.0253668 0.339149 0.0739137 
3184 0.0896259 0.342778 0.076095 
4660 0.0330422 0.339565 0.0760176 
1552 0.342377 0.336472 0.0823943 
2005 0.00787463 0.348905 0.0501476 
3555 0.382064 0.352832 0.0556876 
1319 0.595725 0.350274 0.0503911 
3616 0.554968 0.343908 0.0557604 
5846 0.756551 0.351823 0.0814431 
1730 0.441802 0.360867 0.0905166 
4167 0.342974 0.367709 0.0908265 
7111 0.435674 0.369792 0.0935978 
23 0.648323 0.366043 0.0772691 
3182 0.795762 0.365924 0.0863425 
717 0.605663 0.377586 0.0936674 
2263 0.503503 0.379369 0.0481409 
3520 0.890247 0.378478 0.0784957 
209 0.440078 0.386153 0.0750931 
1025 0.658023 0.386035 0.089958 
3398 0.73549 0.388354 0.0648073 
1288 0.046909 0.399599 0.0607933 
2546 0.0122212 0.401801 0.0722335 
4732 0.106229 0.39847 0.0887037 
2395 0.684084 0.39603 0.0758443 
5714 0.742096 0.401027 0.0599946 
3657 0.286334 0.41144 0.076598 
5411 0.269852 0.410131 0.0756879 
6775 0.280443 0.403706 0.0784836 
5929 0.770596 0.404182 0.0925997 
700 0.189529 0.421376 0.0689111 
3759 0.357971 0.416855 0.0794362 
2130 0.806355 0.412272 0.0484437 
5395 0.964623 0.41275 0.0924643 
790 0.80707 0.430241 0.0559339 
6756 0.859786 0.427505 0.0830895 
1038 0.046911 0.433276 0.0678956 
4182 0.383616 0.432204 0.0610009 
2863 0.531352 0.434169 0.0796858 
1063 0.824682 0.433098 0.0742233 
1854 0.768694 0.436548 0.0539234 
5558 0.677958 0.43774 0.09072 
3338 0.855919 0.438094 0.0495141 
3337 0.534804 0.449401 0.0802556 
5306 0.900723 0.446664 0.075417 
3661 0.581035 0.455411 0.086759 
2967 0.990031 0.454934 0.0743491 
2362 0.435501 0.463086 0.0906192 
3481 0.356189 0.462193 0.0860215 
4696 0.644105 0.465226 0.0530912 
3317 0.738054 0.469809 0.0764608 
4494 0.0983801 0.473676 0.0712956 
2298 0.1696 0.473676 0.0738157 
3285 0.172516 0.479982 0.0579917 
4784 0.165674 0.483374 0.067128 
2205 0.654637 0.486945 0.0879687 
2243 0.674629 0.486705 0.0502352 
4862 0.86568 0.486229 0.0498936 
1871 0.249747 0.499023 0.0863388 
2079 0.492444 0.498724 0.0501172 
414 0.868835 0.513778 0.070382 
1382 0.987595 0.512528 0.0501864 
1737 0.922623 0.519252 0.0757703 
2703 0.640419 0.524608 0.0910381 
3011 0.536653 0.523773 0.0534822 
1518 0.809813 0.521216 0.0824887 
3620 0.641134 0.538234 0.0950558 
6142 0.139141 0.548883 0.0723108 
3015 0.321208 0.541625 0.0917952 
3792 0.575209 0.543884 0.0604787 
6678 0.839385 0.546027 0.0752465 
2962 0.0757159 0.556974 0.0660736 
1957 0.192453 0.553225 0.0507467 
2261 0.606982 0.554238 0.0709319 
1908 0.783099 0.552512 0.0710485 
4388 0.820525 0.558819 0.0724894 
6910 0.698016 0.55174 0.0878845 
3061 0.887283 0.558582 0.0835533 
1316 0.0842841 0.562388 0.0509659 
1951 0.433008 0.561676 0.0835864 
7132 0.638101 0.559057 0.0652447 
1643 0.859319 0.566731 0.0548297 
679 0.53261 0.577145 0.0720435 
1112 0.66327 0.577798 0.0486986 
2206 0.489771 0.582619 0.081705 
5293 0.243148 0.596303 0.0655372 
5517 0.490962 0.589997 0.0725409 
5941 0.482275 0.593508 0.0851182 
5014 0.620967 0.595352 0.0844825 
6664 0.807199 0.592792 0.0514024 
2121 0.125698 0.60035 0.0825715 
2569 0.150152 0.605348 0.0889408 
7358 0.231011 0.603264 0.058245 
968 0.925603 0.606537 0.0592446 
537 0.112727 0.609216 0.0866244 
5525 0.202512 0.616474 0.0711549 
6741 0.365004 0.615998 0.0701324 
868 0.910431 0.615819 0.0668102 
661 0.386364 0.617723 0.0640365 
6558 0.449314 0.619331 0.0916201 
3977 0.598478 0.618853 0.0639723 
2260 0.862773 0.627004 0.0553702 
6098 0.928757 0.624209 0.0790444 
4624 0.533446 0.635276 0.0870713 
3533 0.719202 0.629267 0.0918535 
3436 0.11392 0.646044 0.0541571 
5818 0.170086 0.639201 0.0520081 
1894 0.659169 0.646996 0.0588631 
3836 0.833025 0.645391 0.086252 
5819 0.0994616 0.650865 0.081912 
6458 0.25285 0.651577 0.0505751 
162 0.484183 0.6561 0.0717781 
4960 0.45116 0.651339 0.0507995 
7301 0.712539 0.64783 0.0861743 
2459 0.85028 0.648068 0.080808 
6967 0.175086 0.665739 0.0737477 
7342 0.808869 0.663536 0.0576821 
2966 0.133734 0.672104 0.0499786 
7340 0.162294 0.667345 0.0756843 
2457 0.343587 0.674842 0.0693664 
3877 0.625018 0.684006 0.0821626 
6075 0.632575 0.68329 0.0556783 
470 0.815653 0.681387 0.0642983 
900 0.748538 0.68585 0.0852757 
630 0.874498 0.680793 0.0828052 
6479 0.929058 0.681327 0.0623822 
2455 0.37667 0.687812 0.0512891 
2981 0.354596 0.688051 0.0766413 
4207 0.481805 0.68918 0.0490674 
6131 0.49543 0.691977 0.0552429 
921 0.528452 0.688826 0.0915177 
1333 0.525061 0.693941 0.0670015 
6519 0.669227 0.690311 0.052525 
5369 0.0492475 0.702569 0.0752468 
6591 0.229232 0.696617 0.0491606 
3819 0.491028 0.701678 0.0945821 
3969 0.57385 0.701913 0.0558441 
5208 0.800601 0.705662 0.0538748 
985 0.944172 0.699415 0.0646573 
2750 0.393985 0.713161 0.0886218 
4236 0.454139 0.713218 0.0626135 
3557 0.518279 0.712922 0.0772163 
3218 0.819403 0.71185 0.0579637 
7261 0.709509 0.711017 0.0704105 
2227 0.99552 0.708817 0.0912696 
5798 0.885388 0.715003 0.0503569 
786 0.24738 0.721846 0.0657639 
4544 0.263445 0.7203 0.0792126 
6033 0.191987 0.723811 0.0944039 
783 0.652628 0.725178 0.0636629 
4941 0.00456536 0.729998 0.0787782 
5434 0.3258 0.727141 0.0644567 
1160 0.442478 0.728332 0.0716697 
5281 0.398687 0.730415 0.0859849 
399 0.639063 0.732022 0.0898467 
3120 0.547256 0.735233 0.0682999 
7309 0.627282 0.726547 0.0673735 
737 0.175328 0.735709 0.0643292 
756 0.696778 0.740172 0.0631657 
6474 0.801079 0.737316 0.078201 
3666 0.858079 0.741898 0.07356 
7 0.0908399 0.745646 0.0659791 
3290 0.0720386 0.752488 0.0723075 
5893 0.0948266 0.750762 0.0515042 
1524 0.278203 0.754393 0.0779002 
6841 0.552731 0.753559 0.0608729 
5614 0.802092 0.753322 0.0902662 
2944 0.9531 0.74648 0.0920224 
216 0.105359 0.764506 0.0493755 
4351 0.0274741 0.757367 0.07108 
1171 0.205436 0.756 0.0915607 
1753 0.223048 0.763021 0.0879534 
1352 0.415765 0.756654 0.0758699 
164 0.214778 0.76653 0.0766995 
2675 0.487343 0.772181 0.047726 
4441 0.579388 0.765755 0.0499974 
3643 0.949948 0.773371 0.0483883 
7023 0.0358055 0.783189 0.0637684 
909 0.634246 0.77861 0.0906128 
848 0.334729 0.79378 0.06783 
3457 0.371975 0.786818 0.047769 
6722 0.389825 0.793841 0.0869172 
7439 0.547735 0.78539 0.0479572 
2930 0.33348 0.803896 0.0861461 
5769 0.0117695 0.80919 0.0547466 
2946 0.307123 0.809725 0.0491076 
5919 0.574452 0.808714 0.0616209 
6368 0.864986 0.813356 0.0696338 
5437 0.0743628 0.815439 0.0858743 
1229 0.25411 0.823471 0.07506 
5044 0.346214 0.823469 0.0476598 
2397 0.656263 0.820078 0.0523292 
7346 0.643412 0.823353 0.0940102 
1787 0.667687 0.814487 0.0820057 
6387 0.717131 0.814188 0.0543304 
6404 0.848683 0.82109 0.0598201 
685 0.0431265 0.827277 0.0483658 
426 0.224539 0.827516 0.0621271 
3938 0.255776 0.82597 0.071827 
6564 0.234119 0.830074 0.0530152 
6485 0.544584 0.825852 0.0908477 
4873 0.862904 0.829955 0.0489012 
107 0.28624 0.841737 0.0685813 
1265 0.968218 0.836798 0.0565444 
6425 0.958162 0.836442 0.0738016 
5325 0.189793 0.845247 0.0667346 
4508 0.454385 0.850542 0.0673997 
5247 0.601586 0.849114 0.066907 
181 0.975001 0.846258 0.0546517 
4249 0.878673 0.851613 0.0513319 
1145 0.510195 0.854352 0.089816 
7070 0.76497 0.854113 0.072478 
4360 0.131604 0.867263 0.086078 
5229 0.111315 0.870296 0.062242 
6526 0.00951174 0.863751 0.0588732 
5766 0.40167 0.86976 0.0588259 
314 0.778715 0.870893 0.0922898 
7384 0.791924 0.866428 0.0552293 
2796 0.117622 0.87583 0.0744065 
562 0.199255 0.875591 0.0611618 
5707 0.231563 0.878091 0.070991 
1690 0.41006 0.873925 0.0642589 
4586 0.40292 0.873747 0.071604 
5333 0.602361 0.881898 0.0532346 
5548 0.637823 0.890823 0.063062 
2471 0.805313 0.889633 0.0692008 
6188 0.161831 0.900284 0.0808997 
6763 0.322716 0.894037 0.0781191 
220 0.406551 0.895346 0.0773465 
633 0.438085 0.900938 0.0700691 
5273 0.658053 0.894037 0.0762486 
514 0.758488 0.901176 0.0608365 
2965 0.708032 0.893561 0.0865195 
806 0.0544958 0.910814 0.0525693 
2163 0.155465 0.90772 0.0490456 
2975 0.10388 0.903379 0.0846268 
6637 0.693099 0.908317 0.0817545 
2603 0.887006 0.910994 0.0780558 
902 0.103643 0.921048 0.054197 
2083 0.377933 0.920454 0.0720856 
3646 0.097336 0.925868 0.0665261 
3581 0.621106 0.927712 0.0553404 
1387 0.890577 0.931224 0.086881 
3687 0.884805 0.922595 0.0490677 
1667 0.196402 0.935448 0.0752512 
1696 0.372758 0.939078 0.0899703 
6499 0.666385 0.936161 0.0621496 
691 0.799306 0.936044 0.093896 
3914 0.775625 0.933126 0.0511114 
7318 0.302728 0.941815 0.0763777 
6725 0.547626 0.945324 0.0670491 
1340 0.962156 0.947941 0.0524809 
2101 0.224071 0.966922 0.0592364 
3134 0.474443 0.965137 0.0614361 
993 0.534656 0.963175 0.0764828 
508 0.982089 0.967339 0.0652534 
2594 0.896291 0.960853 0.0627755 
5392 0.144819 0.971146 0.0581565 
152 0.321412 0.976979 0.0777495 
5000 0.249359 0.975729 0.0768459 
2768 0.77295 0.975847 0.0623958 
6076 0.785981 0.97555 0.0700253 
5549 0.883678 0.971801 0.0542444 
4290 0.617361 0.98733 0.0616165 
4461 0.768429 0.982154 0.0587261 
4294 0.574046 0.999053 0.0844598 
5232 0.587731 0.997982 0.0887724 
1291 0.716725 0.993757 0.0811729 
2632 0.694591 0.997684 0.0830188 
5414 0.882132 0.994054 0.0671101 
2449 0.212174 0.00161439 0.133083 
561 0.856786 0.00298306 0.136324 
912 0.924675 0.00976436 0.109681 
2589 0.00273771 0.0126806 0.122522 
2683 0.202179 0.0195238 0.137342 
1662 0.167015 0.0201165 0.098025 
342 0.869639 0.0280318 0.129898 
7165 0.0991868 0.031898 0.110106 
5695 0.78045 0.0298157 0.112633 
2576 0.687216 0.0401106 0.139327 
6393 0.927235 0.0409426 0.122584 
7040 0.00428709 0.0531399 0.121953 
1421 0.191174 0.057186 0.12569 
94 0.469748 0.0502829 0.104493 
4834 0.356283 0.0507586 0.100108 
4779 0.574585 0.0508204 0.138706 
2189 0.710303 0.0545075 0.106927 
6168 0.702627 0.0566501 0.11768 
111 0.316955 0.0598023 0.0968389 
5317 0.491585 0.0653962 0.113526 
3972 0.902306 0.0629559 0.0991482 
3770 0.0820534 0.071645 0.137508 
601 0.0858025 0.0824718 0.102863 
128 0.415189 0.0838403 0.103521 
7489 0.42465 0.0853286 0.118124 
7454 0.652888 0.083902 0.140938 
723 0.134117 0.0971696 0.128693 
222 0.297441 0.0930044 0.125709 
896 0.443749 0.097466 0.111491 
1186 0.72863 0.0889594 0.139996 
3825 0.00589643 0.101276 0.137758 
483 0.623496 0.1052 0.102241 
6505 0.639145 0.105855 0.10164 
1034 0.798364 0.100145 0.138754 
1758 0.673952 0.106867 0.107839 
5982 0.819902 0.100857 0.0976965 
1461 0.897549 0.103892 0.107436 
1199 0.633314 0.111627 0.115552 
3543 0.790511 0.112341 0.110613 
2575 0.845904 0.107879 0.121419 
3808 0.437325 0.125729 0.123887 
2452 0.509616 0.123467 0.107079 
7053 0.066349 0.127811 0.124647 
1797 0.229733 0.129656 0.120489 
4846 0.434351 0.134059 0.137571 
4303 0.703405 0.129418 0.130567 
234 0.8418 0.136795 0.106588 
1516 0.131858 0.13751 0.128658 
7227 0.127277 0.140069 0.140583 
2431 0.197783 0.139592 0.12257 
3719 0.36682 0.142626 0.10818 
2416 0.803959 0.138581 0.139051 
3863 0.105977 0.15405 0.120825 
6378 0.0561167 0.153098 0.126285 
7109 0.515746 0.147624 0.114229 
1864 0.72554 0.147624 0.117586 
6738 0.702276 0.153455 0.110217 
2168 0.691686 0.167081 0.122187 
761 0.141975 0.176957 0.120457 
4985 0.179282 0.185763 0.126844 
6294 0.458213 0.183979 0.129724 
3418 0.866912 0.18606 0.109611 
5360 0.991205 0.182252 0.116974 
6909 0.270315 0.191178 0.1285 
5241 0.587802 0.186416 0.101902 
5286 0.292569 0.201054 0.114921 
4225 0.348379 0.205458 0.134209 
1154 0.743095 0.199984 0.134581 
3629 0.909038 0.204268 0.136568 
6559 0.859416 0.205338 0.121533 
26 0.286619 0.209623 0.132215 
3634 0.662415 0.206588 0.127532 
2934 0.698531 0.21575 0.102417 
3360 0.742323 0.219974 0.107559 
6631 0.889523 0.217654 0.111759 
1729 0.355818 0.233124 0.108136 
2453 0.682408 0.231995 0.13913 
5526 0.901186 0.228603 0.123537 
2373 0.617912 0.239609 0.113995 
2221 0.311254 0.249249 0.12671 
6762 0.284539 0.253293 0.100692 
4242 0.937422 0.255496 0.118659 
3931 0.0282186 0.27037 0.106746 
4463 0.246461 0.268406 0.0992526 
4430 0.482315 0.271561 0.12447 
5096 0.661824 0.272335 0.13537 
4094 0.785284 0.272929 0.114633 
5779 0.825743 0.266623 0.129025 
5792 0.72281 0.267514 0.113657 
1430 0.979906 0.27174 0.127995 
228 0.0882539 0.282569 0.140238 
4218 0.151441 0.274953 0.127525 
1531 0.849305 0.277033 0.0978637 
1592 0.860432 0.281913 0.104541 
1833 0.0996186 0.289885 0.0979228 
377 0.322621 0.287565 0.105574 
7412 0.745184 0.302323 0.13508 
889 0.650819 0.309997 0.123718 
5793 0.237598 0.317314 0.0975879 
5130 0.908569 0.318982 0.131956 
7441 0.851688 0.31803 0.125739 
3897 0.613633 0.3288 0.138257 
6139 0.553777 0.328798 0.10559 
3882 0.680688 0.329096 0.114451 
518 0.197914 0.339091 0.107936 
4560 0.696814 0.348672 0.126194 
4096 0.155611 0.359737 0.101146 
7257 0.168106 0.355335 0.11966 
3816 0.673848 0.360037 0.136601 
5269 0.0605921 0.371934 0.0997018 
3045 0.312392 0.364913 0.0965784 
7303 0.436685 0.37247 0.0968098 
7457 0.43609 0.366997 0.110776 
1793 0.633865 0.371161 0.10346 
6851 0.580911 0.365332 0.131209 
3164 0.0965892 0.374493 0.101085 
6394 0.264198 0.373363 0.115135 
441 0.482857 0.373957 0.0966672 
579 0.330778 0.38681 0.120839 
4316 0.320485 0.386929 0.119146 
237 0.653977 0.389905 0.132009 
763 0.973427 0.387463 0.0973692 
781 0.942309 0.388655 0.124078 
358 0.16793 0.396271 0.128878 
3060 0.923448 0.392165 0.117504 
4869 0.92327 0.392701 0.12866 
2368 0.326852 0.403826 0.101984 
5594 0.91143 0.403232 0.123159 
1128 0.280503 0.41888 0.108059 
6895 0.669389 0.417096 0.133292 
2191 0.939812 0.416142 0.0962396 
136 0.00662966 0.42477 0.117422 