ITEM: TIMESTEP
0
ITEM: NUMBER OF ATOMS
7500
ITEM: BOX BOUNDS pp pp pp
0.0000000000000000e+00 9.0000000000000000e+01
0.0000000000000000e+00 1.4000000000000000e+03
0.0000000000000000e+00 3.0000000000000000e+02
ITEM: ATOMS id xs ys zs vx vy vz fx fy fz 
2162 0.207533 0.00446446 0.0341022 0 0 0 0.388188 -2.0926 -0.426363 
6072 0.328733 0.00922507 0.0456735 0 0 0 2.22587 -0.981678 0.677007 
74 0.465401 0.00238017 0.003516 0 0 0 0.308555 0.897036 0.0537961 
1037 0.0014886 0.0189225 0.0296333 0 0 0 1.94198 1.24179 1.69964 
6683 0.0975791 0.0116634 0.0265152 0 0 0 -0.976205 0.504595 -1.03864 
6670 0.328971 0.0170775 0.0208304 0 0 0 0.327954 2.0207 1.39649 
6896 0.238235 0.0134486 0.0303496 0 0 0 -0.871601 1.28472 -0.394426 
752 0.638782 0.0152334 0.0272264 0 0 0 -0.236374 -2.53028 -1.02831 
5309 0.745405 0.0185644 0.012251 0 0 0 1.71478 0.578674 0.865733 
954 0.942941 0.0163635 0.0219576 0 0 0 -1.6015 -1.5562 0.312136 
4487 0.631464 0.0206473 0.019139 0 0 0 -0.646728 2.27116 -0.287465 
4542 0.978939 0.0230857 0.00144419 0 0 0 0.980876 1.38222 -0.487742 
1671 0.313979 0.0377823 0.00697995 0 0 0 -0.435925 -0.651931 0.0982977 
143 0.897009 0.0360568 0.00611039 0 0 0 -0.206461 0.269873 0.205811 
612 0.476054 0.0478967 0.000416088 0 0 0 3.61536 -1.1887 -0.661828 
4621 0.432799 0.0479568 0.00975945 0 0 0 -2.00373 -1.4544 3.54503 
4087 0.513956 0.0523618 0.0444499 0 0 0 0.398498 0.165653 -0.0661051 
4155 0.994827 0.0491471 0.0152585 0 0 0 1.01188 -0.844758 1.87285 
5143 0.904389 0.0584877 0.00345244 0 0 0 -0.533005 -2.12247 0.801286 
2619 0.318502 0.0645577 0.0208801 0 0 0 -1.25702 -1.93481 1.41331 
1916 0.346169 0.0650941 0.0359888 0 0 0 2.13294 -0.682867 4.13055 
3574 0.768255 0.0622372 0.0199611 0 0 0 -3.35815 -1.52452 0.951236 
5487 0.815319 0.0651527 0.0213756 0 0 0 0.656197 1.83732 0.958454 
4179 0.113469 0.0779445 0.0130227 0 0 0 -0.555119 0.886326 0.220041 
6216 0.213784 0.0717578 0.0331486 0 0 0 -1.91002 0.681018 1.78691 
2454 0.358545 0.0733032 0.00626981 0 0 0 1.98801 2.41145 -2.01846 
3951 0.380858 0.0727688 0.0252372 0 0 0 3.01446 1.89401 3.4437 
2970 0.857802 0.0712222 0.0315874 0 0 0 0.424088 0.855506 1.50833 
4431 0.960438 0.0761601 0.022047 0 0 0 1.16379 0.620306 0.457839 
3260 0.65741 0.0827059 0.0387832 0 0 0 -1.39207 1.65376 -2.56553 
6556 0.830611 0.0789555 0.00589391 0 0 0 0.786541 1.01213 1.9898 
819 0.742196 0.0927593 0.00520403 0 0 0 -0.907597 -7.67762e-05 0.539448 
1649 0.257102 0.107338 0.0246968 0 0 0 -0.551059 2.96588 -1.18527 
6205 0.240858 0.101508 0.0377006 0 0 0 -2.62878 1.36785 -2.05936 
31 0.363961 0.0983526 0.0119984 0 0 0 1.31403 -0.989806 -2.02509 
199 0.095087 0.126555 0.0126951 0 0 0 0.0153199 2.65329 -3.22761 
1137 0.0145844 0.120367 0.00631307 0 0 0 0.946325 -0.658546 0.860512 
6113 0.103536 0.125663 0.0225213 0 0 0 2.14698 -0.974318 4.54187 
118 0.782717 0.118047 0.015451 0 0 0 -2.54057 -0.517377 0.658771 
2984 0.687994 0.119476 0.0385697 0 0 0 -1.58651 0.298552 1.17657 
5484 0.858875 0.11775 0.0188308 0 0 0 1.26044 -0.244569 0.166418 
3577 0.480046 0.128756 0.00865478 0 0 0 0.330505 -0.626673 0.590559 
657 0.840134 0.139884 0.0278016 0 0 0 -0.0625916 0.0111993 -0.0909648 
3044 0.169343 0.151188 0.0164998 0 0 0 -0.249563 -0.829624 0.767457 
3793 0.46547 0.152199 0.00919884 0 0 0 -1.27817 -0.631967 4.77434 
1355 0.29209 0.163326 0.0172713 0 0 0 -0.72757 0.367315 0.612976 
7213 0.337726 0.157257 0.0198478 0 0 0 0.140576 -1.28403 0.746467 
6147 0.758979 0.158981 0.00108887 0 0 0 -0.368234 1.21029 3.11634 
3857 0.969189 0.163801 0.00789259 0 0 0 -0.0402435 -1.79805 -0.876791 
7429 0.293995 0.171298 0.00170771 0 0 0 -0.515062 0.911347 0.991678 
188 0.389967 0.169872 0.0386329 0 0 0 0.57995 0.931685 -0.15247 
1936 0.71019 0.170348 0.0421207 0 0 0 0.0796793 -0.458736 0.376922 
532 0.985136 0.173144 0.0347958 0 0 0 1.1232 2.09239 1.08866 
1693 0.993049 0.16886 0.0254445 0 0 0 1.16778 -1.26704 -0.00267808 
5719 0.894876 0.176001 0.0431144 0 0 0 -1.40932 1.26314 0.91297 
5774 0.161491 0.18439 0.0357828 0 0 0 0.0168679 -0.364506 1.02621 
1712 0.455892 0.184805 0.0175929 0 0 0 0.553149 -4.18337 -5.52162 
3516 0.457202 0.185817 0.0238159 0 0 0 1.63338 1.97411 2.87482 
539 0.654203 0.184152 0.0463145 0 0 0 4.07878 -1.89014 -0.782663 
3554 0.561562 0.17731 0.0463725 0 0 0 -0.242064 -2.31534 -1.24586 
6338 0.626893 0.186175 0.0424269 0 0 0 -1.38269 4.04504 -2.74029 
2676 0.130909 0.189326 0.000869289 0 0 0 -0.69449 -0.266009 2.13576 
246 0.378306 0.188257 0.0304846 0 0 0 -3.01953 -1.52718 0.44053 
4594 0.382471 0.192124 0.0349145 0 0 0 -0.704518 3.24852 1.64836 
5808 0.320593 0.201465 0.0237894 0 0 0 -1.54783 -1.22626 0.630079 
1087 0.420015 0.200393 0.00794914 0 0 0 1.86287 -0.140974 -1.33448 
4686 0.07397 0.21295 0.0455032 0 0 0 -0.231444 -1.28763 0.165959 
1966 0.312263 0.210212 0.0335113 0 0 0 -1.06498 -1.81497 -0.498045 
2622 0.336539 0.208366 0.0109027 0 0 0 0.421894 0.13104 -3.38907 
838 0.643316 0.206762 0.0431048 0 0 0 -0.0626724 -2.42516 -0.802521 
2451 0.0800395 0.223897 0.0390617 0 0 0 -1.18117 1.05083 0.647489 
6585 0.11919 0.219671 0.00465681 0 0 0 0.389575 -0.624509 -1.31266 
3186 0.194813 0.221279 0.0399416 0 0 0 -0.0732333 1.22107 -0.471203 
2756 0.396574 0.216222 0.0409225 0 0 0 2.85608 0.627308 -2.35009 
5334 0.713109 0.216459 0.0274872 0 0 0 0.521199 0.787847 -0.546009 
1161 0.552462 0.231154 0.00229663 0 0 0 3.32005 -0.0419561 0.724013 
1519 0.387829 0.240318 0.0200783 0 0 0 0.869473 1.49253 -0.0013821 
7101 0.364922 0.236154 0.0373183 0 0 0 -0.631242 -1.18988 1.78657 
127 0.744407 0.240676 0.0373901 0 0 0 -0.994219 -0.308865 -1.16277 
3100 0.928377 0.235677 0.0187256 0 0 0 0.0286433 -2.19303 0.546095 
4100 0.939207 0.244304 0.0114434 0 0 0 2.52717 1.54066 -2.56091 
6303 0.901127 0.242817 0.0183558 0 0 0 -2.79162 -1.58872 0.612141 
2131 0.193387 0.252217 0.0153609 0 0 0 -0.0702728 -1.01734 -0.90103 
4262 0.316014 0.252039 0.0200451 0 0 0 1.35939 0.279069 0.405531 
1102 0.543895 0.25091 0.042931 0 0 0 -0.267897 0.163393 -0.477901 
6658 0.767969 0.248292 0.0472388 0 0 0 -2.87358 1.02878 -0.0841127 
2585 0.90678 0.254063 0.0341815 0 0 0 0.917441 0.506562 0.138085 
6767 0.986806 0.249125 0.0398557 0 0 0 1.82154 0.155721 0.780626 
2289 0.0015626 0.262572 0.0418582 0 0 0 0.472022 -0.245795 2.25264 
2490 0.157747 0.256561 0.0286711 0 0 0 -0.375799 1.348 0.96107 
911 0.732806 0.264295 0.00582642 0 0 0 -0.374133 -1.15534 -0.460832 
2016 0.830324 0.256621 0.0246627 0 0 0 -1.63548 0.690249 -1.46575 
4097 0.968422 0.263879 0.00705658 0 0 0 -2.79744 -0.580701 -2.84867 
705 0.0169135 0.264712 0.0128766 0 0 0 3.38931 1.21691 -0.614793 
55 0.401575 0.270246 0.0233741 0 0 0 -0.0988645 -0.108171 -1.67513 
5718 0.752322 0.271853 0.0257568 0 0 0 0.561375 1.01513 0.828265 
4933 0.00281327 0.282681 0.0224798 0 0 0 -0.0119288 -1.26039 -3.16447 
1838 0.44501 0.282861 0.0386608 0 0 0 -0.953961 -0.0985008 -0.710976 
4656 0.993055 0.275838 0.0154706 0 0 0 0.0394195 -1.42725 -0.471831 
1996 0.000849908 0.284407 0.0355585 0 0 0 -0.164589 1.69713 1.95612 
5540 0.583584 0.290773 0.024202 0 0 0 0.110744 0.704914 0.149924 
5509 0.772255 0.288511 0.000303534 0 0 0 1.10507 -0.136766 0.589295 
1375 0.972945 0.292916 0.0353775 0 0 0 0.965965 0.53769 -0.408238 
1030 0.450723 0.301126 0.021687 0 0 0 1.40399 -2.43351 -1.15311 
1674 0.418296 0.30309 0.0327881 0 0 0 -2.21691 1.03016 2.44699 
3994 0.879651 0.301068 0.0429134 0 0 0 -2.11093 -1.04221 1.24698 
5015 0.897204 0.302494 0.0119832 0 0 0 0.777292 -1.16137 1.05453 
3028 0.191546 0.313265 0.0404826 0 0 0 -0.888438 -0.43122 -0.0136722 
2513 0.94159 0.304459 0.0438242 0 0 0 2.73713 1.21557 1.30342 
4899 0.86204 0.312251 0.00341587 0 0 0 1.64828 0.249556 1.60165 
2425 0.483449 0.321593 0.0184465 0 0 0 0.988205 0.189891 0.291455 
4756 0.342436 0.314158 0.0459647 0 0 0 0.226753 0.169878 0.538729 
7202 0.914281 0.317963 0.00587179 0 0 0 0.865801 1.45513 1.59094 
4678 0.0212014 0.332064 0.00745279 0 0 0 -0.493144 0.444637 -1.66372 
1266 0.341008 0.324747 0.0231349 0 0 0 -0.0578331 1.15283 0.9 
1859 0.778921 0.32564 0.0288831 0 0 0 0.00310364 0.642804 -0.0411524 
5862 0.111343 0.334149 0.0438696 0 0 0 3.06245 2.03093 -4.38772 
6586 0.266933 0.338076 0.0425537 0 0 0 0.962338 0.443905 -0.846261 
3812 0.0958735 0.346107 0.0167989 0 0 0 1.05803 0.0470614 -0.719616 
6528 0.589775 0.350093 0.00843791 0 0 0 -0.447005 -1.55847 -0.613853 
2311 0.850916 0.347951 0.0201702 0 0 0 -0.291542 -1.95097 -0.144893 
629 0.0818324 0.35664 0.0433078 0 0 0 1.82051 0.633568 -0.239706 
4139 0.539796 0.354497 0.0301366 0 0 0 -1.26886 0.396982 0.906399 
4270 0.609173 0.362231 0.0223655 0 0 0 1.2531 0.309319 -0.992619 
544 0.796118 0.358544 0.0445726 0 0 0 -0.66036 1.5254 0.322457 
5520 0.978542 0.359198 0.0471251 0 0 0 -0.381284 1.40294 0.435811 
5843 0.850441 0.353605 0.0364801 0 0 0 0.405242 -0.123942 0.226535 
6876 0.392596 0.363423 0.0438303 0 0 0 -0.943404 0.196178 -1.04632 
3844 0.578114 0.365981 0.0397351 0 0 0 -0.432446 1.65786 0.45121 
3556 0.94088 0.371453 0.0105622 0 0 0 1.6732 0.488134 2.70662 
2059 0.229808 0.381569 0.0366186 0 0 0 0.101506 -0.656281 -0.0590649 
2803 0.422108 0.374249 0.000756265 0 0 0 0.290968 0.367184 -0.195517 
1012 0.714546 0.376273 0.0225782 0 0 0 -0.0916919 -0.585417 0.143344 
2262 0.152519 0.390376 0.0419173 0 0 0 -0.486442 -1.77037 0.241856 
1064 0.471136 0.388352 0.0264425 0 0 0 -1.82139 0.424283 -0.453436 
6234 0.654334 0.389005 0.00352799 0 0 0 0.105147 0.717125 -3.2652 
6965 0.586088 0.389244 0.0212025 0 0 0 -1.80508 0.580178 0.45614 
3918 0.68212 0.385555 0.0215113 0 0 0 1.20372 -2.00907 0.86431 
2592 0.919045 0.388115 0.0449493 0 0 0 0.359497 -0.0860671 -0.361268 
3997 0.195894 0.395909 0.0377013 0 0 0 1.51136 0.949647 -0.367849 
2267 0.568299 0.400251 0.0229226 0 0 0 -0.292979 0.236532 -0.120943 
4797 0.733944 0.397514 0.0149535 0 0 0 0.506084 0.820436 -0.440065 
4466 0.982412 0.401203 0.0146368 0 0 0 -0.298063 0.050595 -0.549015 
1781 0.363444 0.408343 0.0289336 0 0 0 -2.48984 -3.186 -4.82632 
5874 0.373916 0.409058 0.0385834 0 0 0 0.46595 -0.542721 3.58738 
7158 0.496663 0.40876 0.0258095 0 0 0 2.46275 -0.571527 -0.252416 
1201 0.85443 0.410665 0.0383051 0 0 0 3.22047 -2.73861 -1.65299 
1065 0.418719 0.413699 0.0325167 0 0 0 1.72012 3.99218 -0.332894 
2638 0.814804 0.414949 0.0395014 0 0 0 -0.534566 4.44643 -1.92567 
5119 0.743168 0.424052 0.0392602 0 0 0 -1.00878 -0.860126 -0.501866 
2375 0.182093 0.438689 0.0426528 0 0 0 -1.37041 1.27301 -0.34932 
6104 0.253789 0.435297 0.0432838 0 0 0 0.870415 -0.909001 -0.147093 
6109 0.629287 0.434046 0.00865634 0 0 0 -0.989169 -1.77552 -0.171519 
7183 0.50315 0.440414 0.0445242 0 0 0 1.29351 -1.84668 -0.558504 
5589 0.680338 0.437202 0.0475538 0 0 0 -1.97777 0.240802 -1.12194 
1455 0.321381 0.449755 0.0346513 0 0 0 -0.866644 -0.513875 0.869065 
2002 0.452338 0.442794 0.0455983 0 0 0 -2.89355 1.37512 0.00532723 
5283 0.615306 0.449101 0.0418113 0 0 0 0.792435 0.700307 1.13964 
7017 0.606441 0.447553 0.0160264 0 0 0 0.015144 0.281328 -1.69658 
3473 0.818079 0.449398 0.0319278 0 0 0 -3.76801 1.05057 1.63518 
5103 0.994969 0.445769 0.0428948 0 0 0 2.89563 -0.705308 -0.0646246 
6193 0.889358 0.446423 0.0278928 0 0 0 0.697651 -3.94809 0.65811 
7139 0.891739 0.449516 0.0182603 0 0 0 0.524487 1.22146 -1.76202 
712 0.32513 0.455049 0.00278996 0 0 0 -0.672447 -0.662109 -0.867665 
2119 0.454659 0.460047 0.0100202 0 0 0 0.383733 -1.33487 -2.83028 
6730 0.506721 0.457788 0.0420567 0 0 0 0.566354 -1.74275 0.488622 
3680 0.925653 0.452074 0.00726224 0 0 0 3.16181 3.09963 -3.17435 
681 0.0532795 0.468079 0.00919229 0 0 0 -0.980392 -1.30153 2.66157 
49 0.284254 0.461356 0.0122295 0 0 0 -1.65846 0.351205 -0.117723 
895 0.481137 0.466237 0.0447102 0 0 0 2.48467 0.80396 3.43984 
1745 0.398731 0.46463 0.0405039 0 0 0 -3.75665 -1.00825 1.49535 
4313 0.453886 0.466771 0.0264472 0 0 0 0.0824064 1.57533 -3.78549 
329 0.669391 0.462426 0.000160901 0 0 0 -4.68952 -2.16083 -2.65821 
1051 0.679804 0.468198 0.00541734 0 0 0 -2.41607 6.09134 -0.92222 
2653 0.697832 0.461357 0.024556 0 0 0 -0.642347 -3.2311 4.7177 
3766 0.756736 0.46433 0.00209871 0 0 0 6.1961 1.07426 -3.17332 
6155 0.730676 0.465105 0.0122089 0 0 0 2.0893 3.37157 3.91858 
1530 0.230825 0.470697 0.00623843 0 0 0 0.254779 0.397046 -0.0421864 
942 0.365412 0.473674 0.0316238 0 0 0 -0.940745 0.0215289 0.377778 
1198 0.530878 0.472959 0.0269907 0 0 0 1.04733 1.86283 -0.788634 
2249 0.952965 0.474626 0.0398047 0 0 0 0.02396 -3.88855 2.21282 
6187 0.951715 0.476469 0.0226788 0 0 0 0.331673 -0.756388 -4.32387 
5181 0.3597 0.480515 0.021822 0 0 0 -0.616194 -0.474545 -1.56207 
6268 0.37993 0.483134 0.0381366 0 0 0 0.858133 2.28195 2.56902 
1499 0.580085 0.48129 0.0427403 0 0 0 -0.775845 -0.794509 -0.16582 
4226 0.655173 0.487716 0.0419873 0 0 0 -1.92032 2.75626 -3.85823 
2599 0.92619 0.482123 0.0441462 0 0 0 2.65604 4.6968 3.24254 
6151 0.916908 0.480873 0.0406286 0 0 0 -2.55018 -3.16418 -1.83888 
2656 0.938627 0.498423 0.00230464 0 0 0 0.94548 1.04066 -0.264501 
4708 0.87883 0.49313 0.027897 0 0 0 -0.134401 1.20532 0.690667 
1561 0.996342 0.516035 0.0048095 0 0 0 0.457529 0.209734 0.223085 
3022 0.813502 0.52871 0.0349415 0 0 0 0.211931 0.31193 1.22642 
3704 0.799936 0.526507 0.00344225 0 0 0 -0.452645 -0.607651 0.640154 
1940 0.181266 0.53091 7.30981e-05 0 0 0 -0.0738428 0.480974 0.231443 
460 0.794522 0.539063 0.0367857 0 0 0 -0.00086689 0.263663 -0.401687 
6583 0.0379337 0.551974 0.033079 0 0 0 -1.52491 -1.40476 -1.60206 
6410 0.175138 0.551559 0.0467609 0 0 0 -0.221052 -3.6196 -3.40636 
6615 0.305026 0.565479 0.00543387 0 0 0 -0.221487 -0.421864 0.217393 
2815 0.502919 0.561971 0.0466941 0 0 0 -0.639043 0.473091 -0.757098 
3214 0.790656 0.559114 0.0323961 0 0 0 -0.80622 -0.517969 -2.26001 
5008 0.986468 0.561554 0.0299941 0 0 0 0.461396 -0.00871149 -1.9621 
7446 0.897755 0.565362 0.0349889 0 0 0 0.594102 1.08149 -2.43252 
3150 0.178829 0.576427 0.0131033 0 0 0 -0.363545 -0.962198 0.609646 
2146 0.790241 0.57631 0.044748 0 0 0 2.62567 0.330947 0.645106 
7090 0.680762 0.5728 0.0474399 0 0 0 -0.11193 -3.71547 0.697076 
4330 0.564085 0.579225 0.0264948 0 0 0 -2.74852 -0.0112143 -1.0662 
6613 0.657261 0.581962 0.0324134 0 0 0 0.148541 3.98958 -0.455312 
4276 0.707716 0.57851 0.012298 0 0 0 1.32647 -0.280706 -2.78004 
2389 0.911679 0.5844 0.0026347 0 0 0 -0.269982 -0.282325 1.61858 
6827 0.0096147 0.594278 0.0368985 0 0 0 -0.445384 1.56436 0.549821 
7499 0.0202052 0.58934 0.031874 0 0 0 0.503145 -2.03058 0.255368 
4256 0.0407928 0.605404 0.0284729 0 0 0 -1.12188 0.184764 1.06574 
839 0.461629 0.602904 0.00313967 0 0 0 2.08582 0.28192 -3.55248 
2782 0.386244 0.602965 0.0281593 0 0 0 -4.25113 4.19993 2.08764 
2922 0.447111 0.60231 0.0289408 0 0 0 5.28177 0.563534 2.76303 
5074 0.394752 0.600584 0.0236102 0 0 0 -2.42895 -5.68009 -1.62431 
226 0.765253 0.604868 0.00909891 0 0 0 0.415176 -0.491595 -0.478464 
5500 0.231488 0.613733 0.0097787 0 0 0 0.698871 -0.69137 0.728995 
4115 0.616387 0.612781 0.0182053 0 0 0 -0.91852 -1.04734 -0.634013 
6970 0.688916 0.610522 0.044153 0 0 0 0.732408 -0.857825 1.27905 
2103 0.301519 0.624145 0.00685532 0 0 0 1.61679 0.402897 0.199045 
3173 0.186923 0.621946 0.043649 0 0 0 -0.551728 0.470673 1.51824 
6874 0.18621 0.62355 0.012167 0 0 0 0.41751 -0.136019 1.08518 
4548 0.645006 0.619088 0.0161479 0 0 0 0.772875 1.04047 -0.126156 
4970 0.906148 0.622183 0.0266605 0 0 0 -0.245007 -1.89315 -0.214393 
4609 0.14819 0.631047 0.00226457 0 0 0 0.704717 1.1613 0.832565 
1576 0.425218 0.630869 0.0229615 0 0 0 -0.326966 0.471542 1.76925 
53 0.718369 0.635688 0.000502376 0 0 0 -0.161403 0.0755529 0.619571 
2440 0.954104 0.629203 0.0155556 0 0 0 0.990403 1.79873 1.40864 
3153 0.62936 0.646577 0.0266356 0 0 0 -1.18416 -0.401303 -0.86171 
3167 0.933221 0.64384 0.0211396 0 0 0 1.36756 -2.84534 1.25163 
4672 0.787687 0.650326 0.031256 0 0 0 -2.26815 -0.532457 1.21557 
2047 0.890084 0.649016 0.0118052 0 0 0 0.831614 -1.38925 -1.21881 
2932 0.877947 0.652408 0.0232817 0 0 0 1.52051 2.49251 1.89261 
299 0.0234226 0.663893 0.0461224 0 0 0 -1.28181 -0.714816 -0.860447 
4073 0.823149 0.657882 0.0219706 0 0 0 -0.74719 2.95497 -0.118179 
4354 0.162234 0.668474 0.0393214 0 0 0 0.693565 -2.23524 -2.98109 
864 0.282363 0.668828 2.50638e-05 0 0 0 0.152408 -0.706508 -1.57297 
1377 0.313421 0.67127 0.0290459 0 0 0 1.5857 0.116363 0.172789 
3513 0.581762 0.668593 0.0412988 0 0 0 -0.305255 -0.491176 0.596687 
5711 0.824994 0.674065 0.0117423 0 0 0 1.01683 -0.150756 0.664683 
1985 0.146646 0.684598 0.0347451 0 0 0 2.46818 1.73955 2.43293 
3865 0.116659 0.682039 0.0277503 0 0 0 -2.49245 -1.04862 -0.756326 
6803 0.137543 0.677576 0.0212908 0 0 0 0.382196 -2.13838 -1.93129 
6431 0.10345 0.688703 0.0269293 0 0 0 -2.00157 3.44027 -1.02181 
1651 0.254102 0.693702 0.0469948 0 0 0 0.636541 -1.69756 -0.317986 
2536 0.353049 0.687632 0.0245347 0 0 0 -0.569164 -0.806939 -2.74804 
4272 0.759784 0.690727 0.0475617 0 0 0 1.8899 1.14092 -0.394709 
6884 0.790069 0.691557 0.00526514 0 0 0 0.498764 0.00551416 -0.150152 
4722 0.357155 0.704054 0.0377725 0 0 0 0.525505 -0.110755 -0.756776 
2429 0.837431 0.697151 0.013163 0 0 0 1.0201 1.53434 -0.148346 
1010 0.208765 0.711551 0.0293493 0 0 0 -3.90732 0.210133 -1.54744 
3789 0.252973 0.711313 0.0341208 0 0 0 2.93346 -0.231046 0.64737 
5503 0.652212 0.719701 0.0110425 0 0 0 0.168234 -1.01611 -0.485031 
623 0.805838 0.722975 0.0353177 0 0 0 1.34782 0.495711 -0.410581 
1533 0.336213 0.733625 0.0396519 0 0 0 -1.08706 -3.69149 -1.80257 
6777 0.520838 0.729222 0.0367834 0 0 0 -0.785609 -0.650618 -2.38017 
155 0.687614 0.726663 0.0270807 0 0 0 0.809586 1.00984 -1.81733 
5383 0.0284848 0.744095 0.000279772 0 0 0 0.319103 -1.5054 1.35997 
3046 0.192405 0.742906 0.0227757 0 0 0 0.148622 -0.579897 -0.475096 
2045 0.34133 0.735648 0.0406479 0 0 0 0.563852 5.5048 -0.144382 
6501 0.467409 0.744214 0.00107542 0 0 0 -1.06688 -0.933678 -0.653375 
6293 0.59908 0.737433 0.0341202 0 0 0 0.45061 0.971313 -1.80144 
3589 0.119519 0.75433 0.0292137 0 0 0 0.974812 1.24634 -2.52817 
3367 0.316282 0.748022 0.00704851 0 0 0 0.0316739 0.678212 0.028161 
2198 0.534762 0.746773 0.0122495 0 0 0 1.26026 0.693579 1.03142 
7068 0.8153 0.752129 0.036001 0 0 0 -0.583278 0.0169037 0.529971 
3332 0.93293 0.758495 0.029176 0 0 0 -0.405818 0.90488 -0.454392 
2982 0.11006 0.771703 0.0206808 0 0 0 -0.176912 -1.21717 -2.14066 
7016 0.286176 0.766229 0.0141968 0 0 0 0.376172 -0.130758 -0.295066 
6141 0.850763 0.773131 0.00863564 0 0 0 0.118179 -0.143846 -0.218988 
84 0.128624 0.77587 0.0452649 0 0 0 -0.179264 -1.01803 0.991622 
5349 0.0523461 0.781163 0.00738514 0 0 0 -1.13426 -0.296158 -1.22087 
2031 0.16825 0.781165 0.0463213 0 0 0 0.994768 1.25463 0.909604 
5160 0.328898 0.782593 0.0393555 0 0 0 -4.32202 0.941965 -0.434879 
747 0.489783 0.783663 0.0244068 0 0 0 -0.322788 -1.28077 -0.977787 
5905 0.357695 0.781046 0.0383098 0 0 0 2.51284 -4.67139 -1.01876 
5311 0.70386 0.77575 0.023432 0 0 0 -0.0241861 -0.0881786 0.084847 
3530 0.160456 0.785447 0.0112815 0 0 0 0.983002 1.07693 -1.45492 
3901 0.065377 0.791815 0.0363802 0 0 0 -0.140195 0.928339 0.434795 
2285 0.625382 0.788245 0.0323272 0 0 0 1.71093 0.550906 0.559765 
3785 0.657749 0.79342 0.00588435 0 0 0 0.691069 0.788155 -0.819539 
1267 0.828511 0.791398 0.0321006 0 0 0 0.188055 0.0442041 0.0547562 
3406 0.039079 0.801274 0.0106798 0 0 0 -0.328832 -0.498604 -0.275147 
1959 0.338657 0.8008 0.0392331 0 0 0 0.11292 0.00998524 -1.51344 
4854 0.102743 0.807225 0.0384644 0 0 0 1.11809 -0.322242 -0.353034 
4682 0.648766 0.806689 0.0255236 0 0 0 -0.0556358 -2.3452 0.410883 
6691 0.156293 0.822457 0.028719 0 0 0 -2.5061 1.47811 -1.77704 
6024 0.180807 0.818946 0.031317 0 0 0 0.152518 -3.82003 -0.642927 
2836 0.368705 0.818172 0.0250653 0 0 0 1.42505 -1.93562 -0.605978 
3503 0.663879 0.814603 0.0286742 0 0 0 -0.566731 0.84091 -1.74096 
2303 0.833035 0.819183 0.0143755 0 0 0 0.267271 -0.397937 -0.200846 
2209 0.570883 0.831858 0.0352175 0 0 0 -0.0454866 -0.0657747 0.682042 
3035 0.00492886 0.839293 0.00235389 0 0 0 2.65632 1.9018 1.39243 
6475 0.323427 0.835488 0.0406546 0 0 0 -0.241137 -1.08847 -1.28331 
5007 0.360316 0.839177 0.0451589 0 0 0 2.42151 0.751495 -0.419504 
3502 0.593136 0.835426 0.00218146 0 0 0 0.116008 0.794754 -0.795636 
3245 0.367278 0.846317 0.0414943 0 0 0 -0.108257 0.729284 -1.40219 
2974 0.785497 0.852147 0.0282087 0 0 0 -0.900113 -0.119127 -1.47514 
587 0.0396773 0.856131 0.000156617 0 0 0 -0.154817 0.124237 0.811794 
1292 0.272795 0.860059 0.0163092 0 0 0 -0.65361 -0.557478 1.51958 
5815 0.431478 0.855003 0.0392822 0 0 0 -3.49942 0.36852 -0.696151 
7124 0.476043 0.855658 0.0377259 0 0 0 4.18394 1.83284 -1.69838 
479 0.312659 0.868151 0.0191114 0 0 0 1.53913 -0.627032 0.0246504 
5747 0.238167 0.87065 0.0140627 0 0 0 -2.03905 0.693044 -1.09886 
4793 0.0422371 0.879217 0.00298608 0 0 0 0.0343338 -1.30438 2.87911 
3038 0.229778 0.879398 0.0459802 0 0 0 0.539853 3.03112 -3.30715 
3097 0.441535 0.87797 0.034695 0 0 0 1.10591 -0.0947116 -0.841087 
827 0.89462 0.878565 0.0382584 0 0 0 -0.353714 -0.755819 1.40311 
54 0.443439 0.885049 0.0238235 0 0 0 0.322478 0.9679 1.3344 
3378 0.690598 0.883978 0.0106833 0 0 0 0.412195 -0.557428 -0.276816 
3668 0.929844 0.885703 0.0147147 0 0 0 0.425625 1.06446 1.53766 
3095 0.236443 0.893557 0.0111516 0 0 0 -1.2178 -0.101568 -1.38118 
3136 0.2985 0.89344 0.0387422 0 0 0 0.0262823 -0.567577 -0.1674 
3451 0.52299 0.897426 0.0371119 0 0 0 0.357854 -0.166135 -1.08403 
1539 0.908127 0.89445 0.0200069 0 0 0 0.161764 0.362695 0.0792159 
4037 0.00499215 0.903077 0.0131317 0 0 0 0.525089 -2.31939 -0.0162874 
6330 0.000113741 0.911645 0.0255185 0 0 0 -1.42782 0.237048 0.886638 
727 0.247867 0.903078 0.040297 0 0 0 0.999601 -0.470601 -0.371179 
6923 0.215857 0.911169 0.021655 0 0 0 0.996364 -0.380461 -0.283739 
2842 0.489195 0.905337 0.00127933 0 0 0 1.27819 -0.531221 0.352335 
6807 0.482353 0.907422 0.0436051 0 0 0 0.44224 1.27979 -0.0104655 
4223 0.792819 0.902245 0.0338274 0 0 0 0.116942 0.628303 -1.81461 
6146 0.275535 0.917655 0.0341976 0 0 0 0.543289 -0.900514 0.103724 
1453 0.94954 0.919499 0.014262 0 0 0 -1.28922 1.39182 -0.561505 
1313 0.321647 0.922713 0.037482 0 0 0 1.73579 1.96737 -0.524016 
6987 0.177303 0.924915 0.04713 0 0 0 1.46848 1.43628 -0.95314 
840 0.768426 0.935861 0.0127092 0 0 0 -0.145887 0.261808 -0.203122 
3517 0.273097 0.945916 0.00640497 0 0 0 -0.63067 -0.225588 1.76864 
1726 0.731418 0.949071 0.0426806 0 0 0 -0.1298 -1.19669 0.352902 
1714 0.940319 0.94312 0.0156395 0 0 0 -1.50265 0.727653 1.0729 
6482 0.19212 0.952879 0.0295339 0 0 0 -0.366257 0.000671998 1.44533 
2234 0.350923 0.959959 0.0232252 0 0 0 -0.230838 -0.537306 -0.489288 
88 0.630925 0.951748 0.0286746 0 0 0 -1.0566 -0.429915 -0.141459 
3017 0.817454 0.953712 0.044996 0 0 0 0.155269 0.19552 -0.133631 
620 0.949721 0.956388 0.0168086 0 0 0 0.354133 0.39272 -1.13824 
4596 0.134109 0.96805 0.0182637 0 0 0 0.524162 -0.26327 -2.36983 
5646 0.0588427 0.969955 0.0418101 0 0 0 -1.27577 0.684839 -1.07219 
6297 0.450406 0.968527 0.0397444 0 0 0 -2.98813 1.30691 -0.214454 
841 0.604329 0.961088 0.00934747 0 0 0 -0.474729 -0.536418 0.166849 
4567 0.507941 0.965849 0.0313513 0 0 0 0.916648 -2.16305 -1.75379 
722 0.724636 0.962636 0.028746 0 0 0 1.02057 0.544666 0.215156 
1536 0.351697 0.975727 0.0464013 0 0 0 -0.0563685 0.770036 -1.57673 
3396 0.541142 0.976617 0.00676444 0 0 0 -0.615227 1.42626 -3.25719 
3989 0.594572 0.972692 0.0369049 0 0 0 2.21869 -0.648117 2.11479 
4605 0.536144 0.974357 0.0152436 0 0 0 -1.40789 -2.65973 0.539901 
577 0.64003 0.988103 0.0457588 0 0 0 0.652874 1.61707 -1.8961 
3711 0.520794 0.982391 0.0433498 0 0 0 -2.01923 0.530464 1.36959 
5319 0.663711 0.983461 0.0230401 0 0 0 0.32245 0.0317404 -2.00136 
944 0.764918 0.981379 0.0306466 0 0 0 1.39901 -0.461172 -3.01409 
5577 0.870886 0.986853 0.038101 0 0 0 0.759369 -0.00465265 -0.853091 
7471 0.0558096 0.991256 0.0358041 0 0 0 2.16085 -0.631005 0.437914 
360 0.292735 0.994943 0.000683577 0 0 0 -3.23503 0.158699 -7.62307 
3701 0.296959 0.994943 0.00325063 0 0 0 2.6405 0.404929 4.1364 
6687 0.306241 0.992624 0.0255368 0 0 0 -1.47611 -2.19245 2.89441 
5967 0.380615 0.992922 0.0339671 0 0 0 2.4739 -0.464595 2.06154 
4799 0.563872 0.996313 0.0270829 0 0 0 -0.857356 0.723697 0.379033 
6288 0.969417 0.991851 0.0339047 0 0 0 -0.723614 0.513279 -0.650552 
5708 0.145952 0.00797572 0.0478848 0 0 0 -1.67282 -0.631297 2.21235 
5194 0.645326 0.000421485 0.0838973 0 0 0 1.17564 4.67785 -0.262939 
6138 0.267984 0.0104169 0.0766082 0 0 0 0.36635 0.0321993 2.17653 
11 0.618612 0.0180916 0.0651679 0 0 0 -0.784739 3.30631 2.58766 
5067 0.64146 0.0138669 0.0616145 0 0 0 -0.222164 -2.06424 0.586061 
6096 0.526508 0.0165436 0.0480859 0 0 0 -3.0887 -0.100045 0.215689 
2522 0.705005 0.0113687 0.0729791 0 0 0 1.78801 -1.21999 1.38701 
6750 0.895104 0.0130347 0.0745074 0 0 0 2.05562 2.12402 -2.94909 
7173 0.867318 0.0114288 0.0831129 0 0 0 -2.51823 -1.59998 0.956382 
1980 0.0945455 0.0266008 0.0802874 0 0 0 -2.35517 -1.00572 0.130025 
3203 0.146667 0.0276119 0.0729238 0 0 0 3.26609 1.17874 -2.36674 
6370 0.771704 0.0266602 0.0772103 0 0 0 -0.979067 -0.669047 -0.792757 
1240 0.900103 0.0292183 0.0717533 0 0 0 -0.278849 -1.00312 -1.55847 
795 0.520142 0.0325489 0.0501099 0 0 0 -0.28933 -0.0353026 -0.536267 
5235 0.519369 0.0348123 0.0899977 0 0 0 -0.130068 -0.147308 0.543296 
6470 0.72952 0.0379038 0.0491458 0 0 0 -0.187071 -0.298876 -0.655226 
6437 0.843222 0.037728 0.0947227 0 0 0 -0.540675 1.30451 -0.359296 
7266 0.969836 0.032789 0.0842432 0 0 0 1.09643 1.17968 -0.180991 
6232 0.406679 0.0459382 0.0830748 0 0 0 -0.436718 -2.0915 -1.20784 
1 0.641283 0.0487922 0.049812 0 0 0 -0.60545 -0.399113 -1.36775 
1953 0.704471 0.0488532 0.075669 0 0 0 -0.493315 -1.03185 0.998594 
6980 0.192245 0.0580153 0.0637887 0 0 0 -1.07275 -1.41806 -0.893772 
888 0.470224 0.05867 0.0669751 0 0 0 1.11155 0.654218 -0.427502 
2584 0.789674 0.0505779 0.0620519 0 0 0 1.89786 -0.318061 -0.655531 
4238 0.149466 0.0668225 0.0863523 0 0 0 -1.42726 0.924508 0.0524622 
6008 0.00357379 0.0647388 0.0642264 0 0 0 0.297964 0.0809738 -0.0775791 
4761 0.275841 0.0656924 0.0920202 0 0 0 -3.07898 2.50859 0.258075 
4248 0.339922 0.0623605 0.0921568 0 0 0 2.82761 0.551191 -0.930726 
7474 0.358605 0.0681912 0.0898986 0 0 0 2.10449 3.90024 -0.265299 
1057 0.832395 0.0589665 0.0502044 0 0 0 0.408593 -0.493818 1.50309 
4774 0.638548 0.0780061 0.0490696 0 0 0 -2.41183 -2.96219 -0.710031 
1360 0.661813 0.0850892 0.0937889 0 0 0 -1.39866 1.46245 1.49797 
231 0.741006 0.0881212 0.052594 0 0 0 0.936637 1.9637 -0.800132 
823 0.756475 0.0791375 0.0640242 0 0 0 3.09455 -1.66174 0.189462 
5776 0.681031 0.0805068 0.07805 0 0 0 -0.898888 -1.63238 1.89211 
1323 0.0330871 0.0956788 0.0732679 0 0 0 -0.642541 1.2396 -0.29369 
1790 0.0431421 0.0887171 0.0681787 0 0 0 -0.591997 -1.14043 -0.728837 
1840 0.29524 0.0969274 0.0581509 0 0 0 3.47286 -1.33021 0.192891 
3273 0.230267 0.091991 0.0924304 0 0 0 -1.3262 -1.84044 2.09401 
6006 0.249366 0.0922871 0.0691247 0 0 0 -0.680952 -4.14137 -0.648401 
6251 0.248295 0.0967484 0.0505711 0 0 0 -3.92991 -1.886 -3.06627 
1020 0.440596 0.0962134 0.0579711 0 0 0 2.72039 -1.45739 -0.604565 
7421 0.787832 0.090682 0.0920525 0 0 0 1.06905 0.0523403 0.178046 
658 0.260909 0.101391 0.0823762 0 0 0 -2.21271 2.36026 2.77829 
2687 0.361225 0.105316 0.0493244 0 0 0 1.3592 1.87492 -1.85748 
7134 0.366758 0.102759 0.076883 0 0 0 1.87072 0.859569 2.39307 
958 0.758381 0.105259 0.0845913 0 0 0 -0.542592 -0.399764 -3.17576 
1562 0.83323 0.104959 0.0501228 0 0 0 -0.151557 -1.88426 -1.92278 
3560 0.498311 0.117277 0.0686405 0 0 0 0.319948 0.0239981 -0.664234 
4928 0.409419 0.110077 0.0665541 0 0 0 0.922723 2.15483 0.483398 
1958 0.899275 0.117276 0.0510703 0 0 0 0.510282 2.55329 -0.606774 
2812 0.877201 0.112099 0.0522731 0 0 0 -0.307978 -2.7032 -2.26455 
5968 0.884519 0.113886 0.0751256 0 0 0 -1.37681 0.655742 2.13046 
6166 0.953181 0.114005 0.0843581 0 0 0 3.94376 0.12452 2.49945 
4367 0.296789 0.1265 0.0885183 0 0 0 -0.435917 -0.761572 -0.200205 
5122 0.985073 0.122274 0.0613684 0 0 0 1.31873 1.20939 0.804956 
699 0.316185 0.128699 0.049455 0 0 0 -0.269309 -0.0384367 -0.67426 
515 0.47951 0.129355 0.0737491 0 0 0 -0.0956634 0.619946 -1.08799 
3752 0.59839 0.132986 0.0887422 0 0 0 0.83647 0.753904 -0.433847 
5388 0.965736 0.131438 0.0711046 0 0 0 -0.0238454 0.859083 0.0652501 
4975 0.257877 0.142563 0.0508143 0 0 0 -0.0931751 0.0202956 0.0596786 
5161 0.447382 0.155535 0.0833267 0 0 0 -0.0870264 -0.627522 -0.198394 
7270 0.913914 0.151191 0.06878 0 0 0 -0.0735368 -0.510663 -0.388792 
7299 0.0340428 0.158034 0.07431 0 0 0 0.265431 0.403983 -0.329434 
6088 0.382291 0.163805 0.066246 0 0 0 -0.0394634 -0.905149 -0.459675 
4016 0.600117 0.160058 0.0919684 0 0 0 -0.353967 0.508675 -0.472736 
1463 0.784563 0.157975 0.090872 0 0 0 0.931044 0.732777 -0.696956 
2562 0.151614 0.171421 0.0790766 0 0 0 0.110975 -0.252162 -0.351982 
110 0.37527 0.166841 0.0912309 0 0 0 -0.327975 1.01167 1.98757 
637 0.503075 0.178561 0.075404 0 0 0 -1.68979 -1.01389 1.45822 
5238 0.632009 0.182547 0.0731398 0 0 0 1.47027 -1.49046 2.16625 
6860 0.948068 0.185761 0.0900909 0 0 0 0.530649 0.648063 -1.99126 
7367 0.591372 0.190462 0.0905813 0 0 0 -0.00154632 3.20774 -0.351636 
6383 0.46226 0.200755 0.0843579 0 0 0 0.266803 0.0978705 -0.0871919 
4296 0.734111 0.196826 0.0564032 0 0 0 0.473079 0.0458527 -0.334774 
4853 0.985078 0.201767 0.0906826 0 0 0 1.39224 -0.526505 -0.645597 
5439 0.84823 0.204741 0.0882217 0 0 0 -0.470642 -0.0965471 -1.97323 
2892 0.306314 0.213842 0.0504609 0 0 0 -1.01356 -2.20476 0.505679 
5726 0.636533 0.211522 0.0491585 0 0 0 -0.641202 1.50419 0.680277 
546 0.262761 0.217235 0.0743422 0 0 0 -2.71173 0.131961 4.29166 
2244 0.303339 0.218424 0.0575438 0 0 0 0.165635 3.72636 -0.0740363 
5390 0.423467 0.217355 0.0783701 0 0 0 1.16082 -0.569154 2.73007 
5528 0.487786 0.220983 0.0583558 0 0 0 2.02673 1.22211 -0.59548 
5616 0.935813 0.216282 0.0559322 0 0 0 -0.588368 0.0889078 0.0410755 
7087 0.133708 0.233538 0.0669444 0 0 0 0.875385 -0.965614 0.651755 