ITEM: TIMESTEP
0
ITEM: NUMBER OF ATOMS
6851
ITEM: BOX BOUNDS pp pp fs
-5.0000000000000000e-01 9.0000000000000000e+01
-5.0000000000000000e-01 1.4000000000000000e+03
-5.0000000000000000e-01 3.0003005300000001e+02
ITEM: ATOMS id xs ys zs vx vy vz fx fy fz 
6844 0.116022 0.000357015 0.00166373 0 0 0 -0.0552779 -0.211966 -0.7347 
3 0.480663 0.00535523 0.00166373 0 0 0 -0.10504 0.0832018 -0.688323 
6496 0.767956 0.00749732 0.0149735 0 0 0 0.11299 -0.194673 -0.559238 
5 0.0828729 0.0117815 0.0149735 0 0 0 -0.10725 0.0279979 -0.630205 
7 0.226519 0.0153517 0.0349383 0 0 0 0.258389 0.0720283 -0.381168 
8 0.61326 0.0124955 0.0149735 0 0 0 -0.107212 0.0928218 -0.634396 
10 0.922652 0.0146376 0.0282834 0 0 0 0.197159 -0.132958 -0.51534 
4 0.0939227 0.02392 0.0382657 0 0 0 -0.12371 0.26848 -0.495252 
6 0.348066 0.0253481 0.0449206 0 0 0 -0.0268595 -0.0140164 -0.348425 
11 0.61326 0.02392 0.0282834 0 0 0 -0.0701788 0.0380488 -0.317935 
9 0.790055 0.0210639 0.0216285 0 0 0 0.0545486 0.23598 -0.700166 
13 0.237569 0.0360586 0.0116461 0 0 0 -0.178003 0.0253889 -0.688535 
6505 0.480663 0.0296323 0.00499118 0 0 0 -0.183526 0.0292342 -0.860392 
244 0.701657 0.0360586 0.0382657 0 0 0 -0.0345919 0.0740159 -0.446912 
14 0.889503 0.0367726 0.0149735 0 0 0 0.0663041 -0.0142192 -0.775857 
18 0.038674 0.0446269 0.0382657 0 0 0 0.194574 0.0753094 -0.665474 
16 0.337017 0.046055 0.0349383 0 0 0 -0.119996 0.228595 -0.605445 
248 0.657459 0.0481971 0.0382657 0 0 0 -0.0784549 -0.133048 -0.682323 
19 0.878453 0.0546233 0.00831864 0 0 0 -0.00447802 -0.216113 -0.69307 
20 0.226519 0.0624777 0.0382657 0 0 0 0.133862 -0.208629 -0.707892 
21 0.414365 0.0646198 0.0449206 0 0 0 -0.0148031 -0.00511409 -0.668363 
22 0.679558 0.0596216 0.0382657 0 0 0 -0.177124 0.0277396 -0.497821 
23 0.779006 0.0681899 0.0216285 0 0 0 -0.263725 0.12713 -0.693059 
6526 0.977901 0.0653338 0.00499118 0 0 0 0.313128 -0.194242 -0.745426 
27 0.425414 0.0774723 0.0382657 0 0 0 -0.146577 -0.125664 -0.852584 
259 0.61326 0.0731881 0.0449206 0 0 0 -0.0168693 -0.216737 -0.446308 
29 0.977901 0.0760443 0.0216285 0 0 0 0.139979 0.01478 -0.448726 
24 0.104972 0.0824705 0.0116461 0 0 0 0.414546 -0.1674 -0.633306 
30 0.60221 0.0831846 0.0216285 0 0 0 -0.11827 -0.157692 -0.641994 
31 0.834254 0.0831846 0.018301 0 0 0 -0.0864937 0.0298078 -0.693315 
6537 0.038674 0.093181 0.00166373 0 0 0 -0.291571 0.309172 -0.801762 
269 0.19337 0.093895 0.0316108 0 0 0 0.188681 0.0420856 -0.440236 
32 0.635359 0.0946091 0.00831864 0 0 0 0.0199109 0.409812 -0.79203 
34 0.171271 0.106034 0.0415932 0 0 0 -0.192153 0.0562328 -0.579732 
273 0.403315 0.106748 0.0249559 0 0 0 0.301673 -0.156054 -0.788038 
276 0.834254 0.0988933 0.0349383 0 0 0 0.095873 -0.0535329 -0.686577 
33 0.270718 0.114602 0.0216285 0 0 0 -0.0446167 0.183603 -0.699848 
39 0.690608 0.113174 0.0249559 0 0 0 -0.300807 -0.00472485 -0.777507 
41 0.856354 0.116744 0.0116461 0 0 0 0.0864592 0.1564 -0.805227 
280 0.955801 0.10889 0.0415932 0 0 0 0.196252 -0.0215313 -0.446891 
37 0.0718232 0.118886 0.018301 0 0 0 -0.146594 -0.0957366 -0.664467 
42 0.469613 0.123884 0.0116461 0 0 0 0.144438 0.00355894 -0.765252 
36 0.0718232 0.133881 0.0116461 0 0 0 -0.0509337 0.047827 -0.7839 
285 0.325967 0.129597 0.0415932 0 0 0 -0.0609223 -0.0879172 -0.269597 
289 0.237569 0.141021 0.0415932 0 0 0 -0.0258454 -0.0548647 -0.342559 
6557 0.403315 0.138165 0.0149735 0 0 0 0.0981262 0.135747 -0.795149 
6560 0.646409 0.142449 0.00499118 0 0 0 0.00416744 -0.380086 -0.557647 
43 0.823204 0.139593 0.0382657 0 0 0 -0.0970674 -0.342786 -0.324872 
44 0.104972 0.148875 0.0349383 0 0 0 -0.128123 0.152048 -0.483386 
47 0.314917 0.152446 0.0316108 0 0 0 0.0260032 -0.202319 -0.513187 
6566 0.535912 0.15316 0.0116461 0 0 0 -0.0827653 0.0398984 -0.759218 
48 0.734807 0.15673 0.0382657 0 0 0 -0.163403 0.00699007 -0.222896 
6569 0.823204 0.148875 0.00831864 0 0 0 0.117562 -0.0237384 -0.714141 
46 0.237569 0.162442 0.0249559 0 0 0 -0.357406 -0.0941926 -0.648208 
6574 0.535912 0.163156 0.0282834 0 0 0 -0.0323802 0.234501 -0.479494 
49 0.944751 0.158872 0.00499118 0 0 0 0.150152 0.125726 -0.603974 
50 0.259669 0.173866 0.0149735 0 0 0 -0.276947 0.223733 -0.716109 
51 0.403315 0.171724 0.0382657 0 0 0 0.148998 -0.0148706 -0.290825 
60 0.59116 0.176009 0.0316108 0 0 0 -0.00824172 0.0626298 -0.568248 
54 0.977901 0.166726 0.0449206 0 0 0 -0.0267973 -0.0840955 -0.294597 
53 0.038674 0.177437 0.0382657 0 0 0 -0.0284405 0.0744466 -0.600963 
63 0.314917 0.184577 0.0415932 0 0 0 0.0404626 0.0417963 -0.325664 
59 0.756906 0.183863 0.0382657 0 0 0 0.112913 0.0312667 -0.566417 
62 0.0497238 0.192431 0.0149735 0 0 0 -0.189572 0.0845182 -0.588783 
58 0.502762 0.187433 0.0449206 0 0 0 -0.0558903 0.0020801 -0.286931 
61 0.624309 0.193145 0.018301 0 0 0 -0.109483 -0.15237 -0.626838 
303 0.801105 0.195287 0.0449206 0 0 0 0.14048 0.0516611 -0.342418 
65 0.226519 0.198858 0.0316108 0 0 0 -0.0823709 -0.239792 -0.442366 
70 0.646409 0.203856 0.0116461 0 0 0 -0.0355774 0.0386146 -0.612804 
67 0.0718232 0.20814 0.0449206 0 0 0 -0.0823111 0.0852074 -0.382599 
68 0.270718 0.209568 0.0149735 0 0 0 -0.113183 0.0820423 -0.643015 
74 0.436464 0.214566 0.0149735 0 0 0 0.110497 -0.134127 -0.523508 
75 0.734807 0.214566 0.0216285 0 0 0 -0.104823 -0.186505 -0.353027 
73 0.19337 0.223135 0.0349383 0 0 0 0.0297715 -0.0111753 -0.601751 
6591 0.790055 0.223849 0.00831864 0 0 0 0.280754 0.076088 -0.574413 
6595 0.447514 0.228133 0.00831864 0 0 0 -0.338663 0.0669286 -0.643912 
76 0.635359 0.229561 0.00166373 0 0 0 -0.104637 -0.0762519 -0.649488 
80 0.944751 0.232417 0.0249559 0 0 0 0.180884 -0.0116759 -0.468879 
6601 0.149171 0.238129 0.0116461 0 0 0 -0.0299253 -0.234304 -0.558757 
77 0.425414 0.242413 0.018301 0 0 0 -0.15546 -0.0287121 -0.735663 
79 0.668508 0.239557 0.0282834 0 0 0 -0.0376861 0.273136 -0.284134 
82 0.823204 0.240271 0.00499118 0 0 0 0.252592 0.183357 -0.63152 
83 0.19337 0.250268 0.00831864 0 0 0 -0.0726994 -0.00131115 -0.79318 
84 0.348066 0.254552 0.0282834 0 0 0 0.208502 0.105671 -0.405932 
85 0.524862 0.251696 0.0349383 0 0 0 0.115915 -0.00667948 -0.53734 
92 0.801105 0.254552 0.00166373 0 0 0 -0.297352 0.186885 -0.77065 
87 0.900552 0.253124 0.0382657 0 0 0 0.188147 -0.14839 -0.246169 
90 0.19337 0.25955 0.0449206 0 0 0 -0.0875046 0.25939 -0.224758 
327 0.21547 0.272403 0.0349383 0 0 0 -0.0806438 0.00617232 -0.318076 
95 0.392265 0.268119 0.00499118 0 0 0 0.15456 -0.220735 -0.687821 
96 0.790055 0.272403 0.0316108 0 0 0 0.0586429 -0.0442788 -0.662135 
99 0.98895 0.273117 0.018301 0 0 0 -0.0334177 -0.0833787 -0.749913 
6618 0.19337 0.283827 0.00499118 0 0 0 -0.113481 0.275515 -0.301551 
98 0.392265 0.283113 0.0216285 0 0 0 0.0222502 0.582805 -0.428549 
6614 0.624309 0.281685 0.00166373 0 0 0 -0.0130263 0.162177 -0.532087 
100 0.00552486 0.285255 0.0449206 0 0 0 0.256436 0.603318 -0.158857 
338 0.469613 0.715102 0.0316108 0 0 0 -0.10621 -0.583294 -0.126107 
340 0.149171 0.72367 0.0316108 0 0 0 -0.317839 -0.294841 -0.605833 
124 0.690608 0.717244 0.0149735 0 0 0 0.0469025 -0.369234 -0.324189 
339 0.977901 0.71653 0.0382657 0 0 0 -0.0392532 -0.646038 -0.159183 
126 0.303867 0.728668 0.00499118 0 0 0 0.0650472 -0.0665732 -0.709527 
127 0.502762 0.727954 0.00499118 0 0 0 0.0161094 0.0174084 -0.60402 
125 0.856354 0.725812 0.0216285 0 0 0 -0.0473884 0.140722 -0.574818 
129 0.0276243 0.738665 0.00166373 0 0 0 0.0179387 -0.321896 -0.632407 
130 0.21547 0.740093 0.0116461 0 0 0 0.100292 -0.00667733 -0.577899 
133 0.635359 0.737951 0.0116461 0 0 0 0.132657 -0.057154 -0.66851 
6766 0.856354 0.743663 0.00166373 0 0 0 -0.211476 0.143094 -0.765251 
357 0.0939227 0.749375 0.0349383 0 0 0 -0.222794 -0.0914133 -0.278689 
135 0.348066 0.751517 0.00831864 0 0 0 0.220463 -0.0151269 -0.603321 
136 0.535912 0.748661 0.0249559 0 0 0 -0.0616013 0.0438859 -0.716624 
137 0.812155 0.752231 0.0415932 0 0 0 -0.0149937 0.101152 -0.395468 
134 0.160221 0.75723 0.0116461 0 0 0 -0.0830495 0.0491794 -0.823054 
362 0.0718232 0.76437 0.0449206 0 0 0 -0.130258 0.0567076 -0.178075 
138 0.900552 0.762228 0.0249559 0 0 0 -0.0850087 -0.234523 -0.621245 
140 0.303867 0.765084 0.00499118 0 0 0 0.192895 -0.0646107 -0.833203 
369 0.668508 0.765084 0.0449206 0 0 0 0.237471 -0.190335 -0.417957 
141 0.856354 0.773652 0.0116461 0 0 0 -0.0340328 -0.0326143 -0.676292 
142 0.104972 0.77508 0.0382657 0 0 0 0.0960517 -0.071407 -0.39029 
143 0.00552486 0.780079 0.00499118 0 0 0 0.0801161 0.236004 -0.759169 
145 0.281768 0.783649 0.018301 0 0 0 -0.337728 0.381503 -0.705048 
147 0.359116 0.77508 0.0216285 0 0 0 0.127 -0.108641 -0.347676 
146 0.524862 0.779365 0.0116461 0 0 0 0.0234727 0.193173 -0.601695 
148 0.690608 0.776508 0.018301 0 0 0 0.0176978 0.0152134 -0.527387 
374 0.425414 0.790075 0.0382657 0 0 0 0.146733 -0.0139247 -0.267932 
151 0.701657 0.787933 0.0449206 0 0 0 -0.00949069 0.122007 -0.44748 
153 0.867403 0.790075 0.0316108 0 0 0 -0.04587 -0.0402922 -0.384201 
154 0.0276243 0.797215 0.00831864 0 0 0 0.21624 0.0825293 -0.832226 
155 0.370166 0.799357 0.0116461 0 0 0 -0.0168313 0.134145 -0.727449 
157 0.635359 0.800071 0.0382657 0 0 0 -0.059568 -0.170495 -0.616078 
6781 0.834254 0.802213 0.00831864 0 0 0 -0.142892 -0.0385086 -0.554593 
160 0.458564 0.813638 0.0316108 0 0 0 0.0951597 -0.0522453 -0.543572 
378 0.98895 0.809354 0.0449206 0 0 0 0.14092 -0.00195882 -0.293034 
159 0.18232 0.815066 0.0349383 0 0 0 0.110163 -0.0493829 -0.453494 
161 0.646409 0.81578 0.018301 0 0 0 -0.132498 -0.111104 -0.840642 
162 0.867403 0.81578 0.018301 0 0 0 0.0847979 -0.0207453 -0.671796 
158 0.127072 0.824348 0.0249559 0 0 0 0.0770521 0.0972161 -0.723009 
6788 0.425414 0.826491 0.00831864 0 0 0 -0.0292219 0.0113551 -0.73792 
6792 0.856354 0.827205 0.018301 0 0 0 -0.0178855 -0.00904816 -0.73312 
164 0.00552486 0.842913 0.00831864 0 0 0 -0.0421883 -0.0326041 -0.68076 
393 0.160221 0.835059 0.0415932 0 0 0 0.0103821 0.0100329 -0.215869 
163 0.60221 0.833631 0.0349383 0 0 0 -0.0569266 0.0500984 -0.692278 
6795 0.823204 0.840057 0.00166373 0 0 0 -0.166172 -0.0983902 -0.6388 
6796 0.171271 0.846483 0.00831864 0 0 0 0.261079 0.094132 -0.65954 
168 0.359116 0.846483 0.0249559 0 0 0 0.0353312 -0.249452 -0.683924 
169 0.712707 0.84934 0.0116461 0 0 0 -0.1729 0.0317445 -0.597774 
403 0.867403 0.851482 0.0449206 0 0 0 0.0595427 0.0650729 -0.209067 
170 0.0165746 0.857194 0.0116461 0 0 0 -0.110023 0.130302 -0.576438 
172 0.403315 0.85648 0.0349383 0 0 0 -0.00851636 0.0700445 -0.539871 
173 0.59116 0.857908 0.0282834 0 0 0 -0.0277534 0.120731 -0.476783 
174 0.359116 0.868618 0.0216285 0 0 0 -0.313334 0.0575612 -0.733928 
411 0.756906 0.865048 0.0382657 0 0 0 0.0986257 0.0695856 -0.550535 
176 0.0165746 0.875759 0.018301 0 0 0 -0.0479323 -0.245436 -0.757201 
177 0.19337 0.882185 0.0382657 0 0 0 -0.0236736 -0.0762131 -0.45934 
178 0.524862 0.872903 0.0116461 0 0 0 0.240412 -0.164827 -0.637229 
181 0.701657 0.881471 0.00499118 0 0 0 0.271807 -0.0874681 -0.783581 
182 0.00552486 0.886469 0.0316108 0 0 0 0.0908861 0.0920687 -0.492188 
184 0.303867 0.890753 0.0216285 0 0 0 -0.135235 -0.0646418 -0.759584 
180 0.458564 0.885041 0.0249559 0 0 0 -0.0598363 -0.111696 -0.549715 
187 0.0497238 0.900036 0.0216285 0 0 0 0.125934 0.11615 -0.621684 
189 0.259669 0.90075 0.0382657 0 0 0 -0.0843421 -0.119374 -0.284522 
185 0.513812 0.89718 0.018301 0 0 0 -0.0173973 0.228502 -0.828843 
186 0.867403 0.895037 0.0216285 0 0 0 0.0311884 -0.188946 -0.663694 
190 0.259669 0.910032 0.0149735 0 0 0 -0.200823 0.0669317 -0.978139 
193 0.734807 0.903606 0.0116461 0 0 0 -0.276255 0.310374 -1.00406 
188 0.944751 0.91146 0.0249559 0 0 0 -0.0436951 0.14537 -0.777377 
194 0.325967 0.917172 0.0415932 0 0 0 0.152755 0.148262 -0.387968 
192 0.513812 0.912174 0.0382657 0 0 0 0.0333294 0.00360468 -0.586342 
6822 0.0718232 0.924313 0.00166373 0 0 0 0.0555534 -0.442247 -0.654465 
196 0.436464 0.927883 0.0316108 0 0 0 0.0126181 -0.162857 -0.476728 
435 0.60221 0.924313 0.0415932 0 0 0 0.103539 -0.114278 -0.352687 
6831 0.171271 0.936451 0.00831864 0 0 0 -0.0290156 0.108395 -0.593455 
6837 0.403315 0.937879 0.0116461 0 0 0 0.253986 0.195166 -0.52792 
198 0.668508 0.937165 0.0116461 0 0 0 -0.124354 -0.0423005 -0.729553 
6830 0.966851 0.933595 0.0116461 0 0 0 -0.242335 -0.00796601 -0.575792 
199 0.270718 0.946448 0.018301 0 0 0 0.0559899 0.320905 -0.612069 
204 0.60221 0.949304 0.0316108 0 0 0 -0.202961 0.0747412 -0.66115 
201 0.878453 0.942878 0.0216285 0 0 0 0.0536924 0.140951 -0.547853 
202 0.138122 0.954302 0.0382657 0 0 0 -0.257948 0.0836282 -0.573792 
211 0.458564 0.957872 0.0382657 0 0 0 -0.128644 -0.229943 -0.632393 
205 0.801105 0.953588 0.0316108 0 0 0 -0.0843112 -0.0658598 -0.5476 
209 0.337017 0.968583 0.0349383 0 0 0 -0.195375 -0.209618 -0.361829 
212 0.756906 0.963584 0.0116461 0 0 0 -0.201165 -0.0214415 -0.745575 
456 0.922652 0.970011 0.0382657 0 0 0 -0.0558963 -0.125358 -0.21378 
208 0.038674 0.973581 0.00831864 0 0 0 0.274255 -0.14878 -0.856095 
213 0.292818 0.978579 0.0149735 0 0 0 -0.134958 0.0528608 -0.835498 
216 0.502762 0.970725 0.0116461 0 0 0 0.102655 -0.190571 -0.773196 
454 0.734807 0.972153 0.0449206 0 0 0 0.112633 0.0163205 -0.219637 
222 0.0939227 0.986433 0.0415932 0 0 0 0.0793189 0.0983127 -0.423392 
218 0.458564 0.981435 0.0449206 0 0 0 0.0746665 0.0232824 -0.366349 
217 0.657459 0.98929 0.0415932 0 0 0 -0.144238 0.115757 -0.265545 
219 0.657459 0.980721 0.00831864 0 0 0 0.0444309 -0.0147635 -0.793461 
221 0.933702 0.983577 0.0249559 0 0 0 -0.20279 -0.118906 -0.591036 
224 0.337017 0.997144 0.00831864 0 0 0 -0.0138388 -0.23904 -0.72969 
227 0.535912 0.998572 0.0449206 0 0 0 0.209921 -0.0712482 -0.272619 
6850 0.790055 0.995002 0.0116461 0 0 0 -0.159691 -0.00980223 -0.76215 
228 0.955801 0.995716 0.0282834 0 0 0 0.159745 0.265515 -0.477668 
229 0.0828729 0.00535523 0.0715403 0 0 0 -0.0848994 0.0474322 0.026987 
1 0.21547 0.00107105 0.0482481 0 0 0 -0.0237189 -0.181381 0.106429 
2 0.359116 0.00749732 0.0515755 0 0 0 0.0345485 0.11909 -0.236316 
237 0.823204 0.00821135 0.0715403 0 0 0 0.00246233 -0.0898505 -0.135091 
234 0.447514 0.0182078 0.0715403 0 0 0 -0.171095 -0.0492955 -0.0804942 
233 0.59116 0.0117815 0.0648854 0 0 0 0.0453595 -0.0295648 0.00997593 
236 0.922652 0.0174938 0.0781952 0 0 0 0.0759584 0.134801 0.168236 
240 0.734807 0.0260621 0.0715403 0 0 0 -0.136062 0.0452911 0.0716734 
246 0.038674 0.0382006 0.0781952 0 0 0 0.0430657 0.0839799 0.0332871 
239 0.21547 0.0332024 0.0648854 0 0 0 -0.0478204 0.00261353 -0.0176241 
247 0.370166 0.0389147 0.0781952 0 0 0 -0.099109 -0.0455508 0.107795 
242 0.502762 0.0353445 0.0482481 0 0 0 0.140016 0.238898 -0.273561 
241 0.900552 0.0296323 0.0582304 0 0 0 0.179782 0.0211343 -0.146016 
249 0.646409 0.0431989 0.0881775 0 0 0 -0.0537109 -0.170106 0.0162539 
252 0.856354 0.047483 0.054903 0 0 0 0.0323856 -0.10814 -0.106413 
250 0.149171 0.0517672 0.0615579 0 0 0 -0.0388732 -0.194706 -0.374048 
17 0.480663 0.0524813 0.0482481 0 0 0 -0.0887838 -0.0324215 -0.52483 
254 0.0276243 0.0610496 0.0582304 0 0 0 0.0536068 -0.166743 -0.197877 
251 0.569061 0.0617637 0.0781952 0 0 0 0.201619 0.0130947 0.0146087 
258 0.845304 0.0589075 0.0682128 0 0 0 -0.00959719 0.107455 0.0728161 
25 0.18232 0.0724741 0.0482481 0 0 0 0.00867182 0.119021 -0.292291 
28 0.889503 0.0717601 0.0582304 0 0 0 0.00559754 -0.0377957 0.162203 
268 0.259669 0.0831846 0.054903 0 0 0 0.0556358 -0.0830673 -0.349095 
487 0.436464 0.0838986 0.0781952 0 0 0 0.064957 0.0956531 0.0240654 
265 0.98895 0.0860407 0.0615579 0 0 0 -0.0992072 -0.0250207 -0.0742068 
264 0.0276243 0.0967512 0.0582304 0 0 0 -0.00814897 0.00146031 -0.06364 
266 0.348066 0.0953231 0.0482481 0 0 0 0.0286724 -0.0838869 -0.386079 
270 0.524862 0.093895 0.0482481 0 0 0 0.0223953 0.0593113 -0.211149 
261 0.745856 0.0888968 0.0515755 0 0 0 -0.0234674 -0.0562387 0.00498491 
272 0.20442 0.10532 0.0881775 0 0 0 0.0472603 -0.0495847 0.104232 
274 0.392265 0.103891 0.0848501 0 0 0 -3.42492e-05 0.00805624 0.0714667 
496 0.569061 0.106748 0.0648854 0 0 0 -0.109943 -0.046117 -0.219211 
275 0.734807 0.106034 0.0615579 0 0 0 0.0413274 -0.0625351 -0.0519229 
278 0.359116 0.115316 0.0715403 0 0 0 -0.0249025 0.0923278 -0.00317717 
281 0.845304 0.11603 0.0781952 0 0 0 0.120986 -0.0712139 -0.0352971 
284 0.0276243 0.124598 0.0781952 0 0 0 -0.105099 -0.0099661 -0.0685809 
38 0.171271 0.125312 0.0482481 0 0 0 0.000491858 0.0769338 -0.219133 
277 0.524862 0.118172 0.054903 0 0 0 0.0142451 -0.0140206 -0.108783 
40 0.679558 0.124598 0.054903 0 0 0 -0.0433174 0.1882 -0.347961 
279 0.856354 0.126026 0.0515755 0 0 0 0.100145 0.28978 -0.396269 
288 0.00552486 0.136737 0.0582304 0 0 0 -0.0232633 0.130773 -0.208153 
286 0.480663 0.132453 0.0682128 0 0 0 0.0225198 -0.0317977 -0.111966 
287 0.646409 0.136737 0.0715403 0 0 0 0.150698 0.0430058 -0.0650033 
45 0.524862 0.145305 0.0482481 0 0 0 0.168538 -0.062374 -0.0203553 
290 0.447514 0.152446 0.0815226 0 0 0 -0.00422233 -0.158783 -0.0304523 
291 0.922652 0.148875 0.0615579 0 0 0 0.11553 -0.0653383 -0.0565769 
292 0.0497238 0.158158 0.0748677 0 0 0 0.093043 0.0200369 0.0546193 
293 0.348066 0.161014 0.0682128 0 0 0 -0.141359 0.0521296 0.0466671 
294 0.58011 0.161728 0.0815226 0 0 0 -0.073223 0.062556 -0.0585056 
295 0.834254 0.158872 0.0848501 0 0 0 0.0839472 0.0629641 0.0302467 
296 0.160221 0.168868 0.0715403 0 0 0 -0.00388265 0.0047261 -0.0508195 
52 0.734807 0.168868 0.0482481 0 0 0 0.0446406 -0.136214 -0.447447 
55 0.867403 0.176009 0.0582304 0 0 0 0.113671 0.105814 -0.145293 
56 0.149171 0.185291 0.054903 0 0 0 0.0268991 0.114402 -0.18032 
298 0.458564 0.178151 0.0815226 0 0 0 0.090889 -0.104837 -0.0357817 
299 0.690608 0.178865 0.0881775 0 0 0 -0.0424462 0.0656371 0.0660674 
64 0.381215 0.196001 0.0582304 0 0 0 0.0622187 -0.0530899 -0.221442 
301 0.624309 0.195287 0.0815226 0 0 0 0.112077 0.0271376 -0.122604 
300 0.955801 0.190289 0.0715403 0 0 0 0.0245675 -0.0370135 -0.102896 
304 0.038674 0.200286 0.0848501 0 0 0 -0.0405264 0.0253034 -0.0705231 
302 0.458564 0.203856 0.0815226 0 0 0 -0.0324933 0.0329053 -0.018736 
305 0.845304 0.205284 0.0615579 0 0 0 -0.0590934 -0.0989579 -0.159968 
306 0.292818 0.210996 0.0715403 0 0 0 0.041007 0.148094 -0.0125642 
307 0.58011 0.210282 0.0515755 0 0 0 -0.0498775 -0.0779782 -0.179361 
312 0.900552 0.21528 0.0482481 0 0 0 0.156887 -0.0112577 -0.213396 
71 0.0276243 0.223135 0.0482481 0 0 0 0.0248949 -0.0606636 -0.153772 
309 0.348066 0.223849 0.0648854 0 0 0 0.00406092 -0.0352405 0.0557173 
311 0.535912 0.223135 0.0515755 0 0 0 0.0603509 -0.126095 -0.100785 
537 0.790055 0.222421 0.0881775 0 0 0 0.0568224 -0.173469 -0.0337165 
315 0.61326 0.230275 0.0815226 0 0 0 0.0315291 0.0131967 0.0963036 
316 0.790055 0.231703 0.0615579 0 0 0 0.0436478 0.126875 -0.0193665 
317 0.038674 0.238129 0.0682128 0 0 0 -0.00647173 -0.132755 -0.0222995 
78 0.303867 0.235987 0.0482481 0 0 0 -0.0872308 0.0156244 -0.242497 
319 0.524862 0.238843 0.0582304 0 0 0 -0.133029 -0.0193934 0.14344 
321 0.867403 0.243841 0.0781952 0 0 0 0.0394619 -0.0637524 -0.172324 
88 0.0718232 0.24884 0.0482481 0 0 0 -0.0618269 -0.0465228 -0.198496 
544 0.259669 0.246698 0.0848501 0 0 0 0.0240526 -0.089804 -0.12386 
86 0.701657 0.249554 0.0648854 0 0 0 -0.0314642 -0.115535 -0.0769931 
89 0.0165746 0.260978 0.054903 0 0 0 -0.0684346 -0.0504018 -0.230568 
322 0.325967 0.257408 0.0848501 0 0 0 -0.0096562 -0.12451 0.0644462 
328 0.447514 0.264548 0.0848501 0 0 0 -0.0242789 0.129551 -0.0219131 
332 0.58011 0.260264 0.054903 0 0 0 0.0187598 0.192742 -0.391078 
324 0.756906 0.262406 0.054903 0 0 0 -0.0298263 0.0844298 -0.319538 
326 0.0607735 0.270975 0.0682128 0 0 0 -0.012906 0.208942 -0.0485074 
329 0.392265 0.273831 0.0515755 0 0 0 -0.0124756 -0.0681384 -0.0102267 
331 0.60221 0.272403 0.0482481 0 0 0 -0.0813593 -0.10957 -0.321716 
337 0.502762 0.283827 0.0715403 0 0 0 -0.253857 0.800046 0.0897384 
334 0.701657 0.283827 0.0582304 0 0 0 -0.096618 0.740517 -0.0986017 
336 0.856354 0.281685 0.0648854 0 0 0 0.118989 0.476303 -0.124553 
341 0.171271 0.714388 0.0881775 0 0 0 -0.0968878 -0.709836 -0.0786717 
345 0.292818 0.724384 0.0582304 0 0 0 0.0802576 -0.369146 -0.130999 
346 0.458564 0.725098 0.0682128 0 0 0 0.145317 -0.151074 0.0172229 
343 0.756906 0.721528 0.0781952 0 0 0 0.0946749 -0.668871 0.137261 
351 0.19337 0.733667 0.0715403 0 0 0 0.0433494 -0.00163522 0.0358507 
350 0.624309 0.72724 0.054903 0 0 0 0.180338 -0.0117938 -0.176238 
344 0.98895 0.726526 0.0715403 0 0 0 0.0658265 -0.207577 -0.0780262 
353 0.845304 0.732238 0.0848501 0 0 0 -0.047806 -0.0830293 0.0209415 
355 0.0497238 0.739379 0.0615579 0 0 0 -0.0172903 -0.0635063 -0.0390135 
131 0.348066 0.740093 0.0515755 0 0 0 0.179451 -0.0659197 -0.202063 
349 0.513812 0.737951 0.0682128 0 0 0 -0.153775 -0.103277 -0.0526302 
352 0.690608 0.741521 0.0615579 0 0 0 0.137788 -0.0187344 0.0296158 
354 0.878453 0.740093 0.0515755 0 0 0 -0.0834041 0.00511039 -0.156995 
358 0.303867 0.750803 0.0648854 0 0 0 -0.0111012 0.0683393 0.0264273 
359 0.59116 0.754373 0.0615579 0 0 0 0.0927629 0.0513148 -0.0795854 
356 0.0718232 0.755087 0.0781952 0 0 0 0.00284595 0.0278094 0.0701219 
366 0.436464 0.759372 0.0715403 0 0 0 -0.0688731 -0.0638165 0.0025957 
363 0.922652 0.762228 0.0881775 0 0 0 0.0654044 -0.0464014 0.0839159 
367 0.259669 0.765798 0.054903 0 0 0 -0.0606653 -0.118313 0.0144234 
574 0.370166 0.773652 0.0815226 0 0 0 -0.0519699 0.107094 -0.053948 
368 0.513812 0.768654 0.0482481 0 0 0 -0.0293261 -0.0456025 -0.233038 
370 0.878453 0.772938 0.0648854 0 0 0 0.129622 0.0489066 0.0677923 
144 0.19337 0.782935 0.0648854 0 0 0 0.119405 -0.0681743 -0.039168 
372 0.712707 0.777222 0.0815226 0 0 0 -0.0492279 -0.0399618 0.00146643 
371 0.98895 0.782935 0.0748677 0 0 0 -0.0548979 -0.0820998 0.0747106 
150 0.0607735 0.792217 0.0515755 0 0 0 0.0288832 -0.00422871 -0.0142434 
376 0.558011 0.787933 0.0715403 0 0 0 -0.0225569 0.0536058 -0.0621599 
156 0.138122 0.803642 0.0515755 0 0 0 -0.0336907 -0.000388068 -0.1413 
373 0.259669 0.795073 0.0648854 0 0 0 0.000328488 -0.0212752 -0.201401 
590 0.889503 0.800071 0.0815226 0 0 0 0.0529467 -0.100793 -0.0398176 
379 0.314917 0.807926 0.0515755 0 0 0 0.0486185 0.0264383 -0.268485 
380 0.513812 0.804356 0.0682128 0 0 0 -0.0859478 -0.0909743 0.00511124 
388 0.734807 0.809354 0.054903 0 0 0 -0.050611 -0.0688308 -0.0928212 
381 0.878453 0.81221 0.0848501 0 0 0 0.083428 0.0345058 0.0596198 
384 0.392265 0.821492 0.0648854 0 0 0 0.046632 -0.115689 0.00230846 
385 0.657459 0.82292 0.0515755 0 0 0 -0.0321792 -0.00989395 -0.00394075 
165 0.325967 0.832203 0.0482481 0 0 0 -0.0812939 0.0136604 -0.211908 
394 0.513812 0.828633 0.0848501 0 0 0 0.0490467 0.205318 0.000995954 
389 0.845304 0.823634 0.0848501 0 0 0 -0.0718586 0.0990431 0.165925 
390 0.98895 0.825062 0.0582304 0 0 0 0.131669 -0.0414018 -0.0473833 
166 0.469613 0.840057 0.054903 0 0 0 -0.0241068 -0.0320576 -0.143281 
395 0.767956 0.834345 0.054903 0 0 0 -0.0515285 0.185223 0.159598 
397 0.966851 0.837201 0.0515755 0 0 0 0.0374977 -0.0590744 -0.0211035 
399 0.160221 0.847911 0.0648854 0 0 0 -0.0941731 0.0397021 -0.0108069 
400 0.414365 0.850768 0.0848501 0 0 0 -0.182074 0.0740338 0.182941 
401 0.624309 0.845055 0.0648854 0 0 0 0.0342836 0.0161163 -0.0474498 
402 0.98895 0.847197 0.0815226 0 0 0 0.0900665 0.0888501 0.0642327 
171 0.21547 0.858622 0.0515755 0 0 0 -0.0201924 0.00918643 -0.162099 
405 0.734807 0.855052 0.0781952 0 0 0 0.10748 0.0903695 -0.014342 
408 0.933702 0.862192 0.0815226 0 0 0 -0.0482721 -0.0131348 0.0691119 
407 0.0607735 0.865762 0.0482481 0 0 0 -0.00679278 -0.126302 -0.338041 
413 0.237569 0.871474 0.0615579 0 0 0 -0.06392 -0.106251 -0.321233 
409 0.447514 0.864334 0.0715403 0 0 0 0.198755 0.0219552 0.00244296 
412 0.0607735 0.873617 0.0881775 0 0 0 0.0209395 -0.0613437 0.14646 
415 0.447514 0.877187 0.0682128 0 0 0 -0.0823302 0.127695 0.050679 
417 0.61326 0.874331 0.0715403 0 0 0 0.00752267 -0.171375 0.0722755 
179 0.856354 0.875045 0.054903 0 0 0 -0.0714806 -0.174535 -0.243334 
421 0.270718 0.890753 0.0815226 0 0 0 -0.109133 -0.090629 -0.0817818 
418 0.646409 0.885041 0.0482481 0 0 0 -0.00975871 -0.082087 -0.0771374 
419 0.834254 0.886469 0.0615579 0 0 0 -0.0672415 0.0164593 -0.069327 
420 0.0828729 0.894323 0.0682128 0 0 0 -0.000746915 0.0583598 0.0876022 
422 0.436464 0.892181 0.0781952 0 0 0 0.0207387 -0.0326169 -0.0765896 
424 0.624309 0.895752 0.0582304 0 0 0 -0.0702955 -0.0573961 -0.310033 
427 0.0276243 0.910032 0.0715403 0 0 0 0.0153825 -0.134449 -0.0212202 
428 0.20442 0.909318 0.0748677 0 0 0 -0.0891723 0.00852101 -0.060177 
423 0.425414 0.903606 0.0648854 0 0 0 -0.0692139 0.0819492 -0.152828 
425 0.779006 0.902178 0.054903 0 0 0 0.101585 0.0760746 0.0716457 
432 0.104972 0.920029 0.0582304 0 0 0 0.0201605 -0.105834 -0.144762 
430 0.668508 0.913602 0.0648854 0 0 0 -0.0921021 0.0491609 -0.165177 
431 0.845304 0.912174 0.0781952 0 0 0 0.0685119 0.0232342 0.0589042 
437 0.834254 0.921457 0.054903 0 0 0 0.124453 0.119753 -0.368516 
434 0.0276243 0.930025 0.0615579 0 0 0 -0.129916 -0.0434146 0.0136321 
197 0.226519 0.928597 0.0482481 0 0 0 0.167406 0.06021 -0.174131 
433 0.348066 0.922171 0.0848501 0 0 0 0.067549 -0.0251675 0.0736718 
438 0.160221 0.939307 0.0748677 0 0 0 0.0789212 0.137281 -0.0416628 
439 0.414365 0.935737 0.0781952 0 0 0 0.00194474 0.0478196 -0.0485353 
440 0.60221 0.935023 0.0748677 0 0 0 -0.0967771 -0.0344233 0.0780005 
442 0.767956 0.931453 0.0515755 0 0 0 0.010886 -0.0739861 -0.160615 
436 0.889503 0.934309 0.0881775 0 0 0 -0.104728 0.0516038 0.038578 
445 0.00552486 0.945734 0.0615579 0 0 0 0.0310091 0.055263 -0.204026 
443 0.314917 0.947162 0.0682128 0 0 0 0.116453 0.123625 0.0368534 
444 0.524862 0.947162 0.0815226 0 0 0 -0.0614644 -0.0621463 0.0704356 
200 0.734807 0.94502 0.0648854 0 0 0 0.0577269 -0.101633 0.122865 
448 0.58011 0.960728 0.0781952 0 0 0 0.146664 0.0718802 -0.230858 
450 0.889503 0.958586 0.0615579 0 0 0 0.185261 -0.00871018 -0.00675803 
449 0.0497238 0.96287 0.0781952 0 0 0 -0.050799 -0.170128 0.0744192 
446 0.237569 0.961442 0.0682128 0 0 0 -0.0197933 -0.122766 -0.189321 
447 0.403315 0.96287 0.0881775 0 0 0 -0.0115093 -0.0277085 0.0531413 
451 0.138122 0.972867 0.054903 0 0 0 0.113236 -0.0825484 -0.297889 
215 0.58011 0.972153 0.0615579 0 0 0 -0.135846 0.00928597 0.0377271 
225 0.259669 0.987147 0.0482481 0 0 0 -0.107968 0.0110326 -0.203557 
457 0.569061 0.985719 0.0881775 0 0 0 -0.0866836 0.0878681 -0.0725084 
458 0.812155 0.984291 0.0648854 0 0 0 0.0605881 0.0913634 -0.111573 
226 0.403315 0.991432 0.0615579 0 0 0 0.109283 0.133697 0.00903694 
462 0.745856 0.998572 0.0715403 0 0 0 -0.0597373 -0.137081 -0.0411066 
463 0.933702 0.99643 0.0781952 0 0 0 0.0736543 0.0237841 0.0809986 
464 0.19337 0.00249911 0.12478 0 0 0 -0.0186811 0.0419099 0.0311746 
459 0.447514 0.00249911 0.0948324 0 0 0 -0.0817312 -0.00904197 0.138832 
230 0.624309 0.00392717 0.101487 0 0 0 -0.00814694 0.0426172 0.100103 
466 0.944751 0.00821135 0.114797 0 0 0 0.0219157 0.123148 0.0351166 
467 0.0939227 0.0146376 0.118125 0 0 0 0.0950845 -0.0978378 -0.0500274 
231 0.325967 0.0110675 0.108142 0 0 0 0.00374979 -0.0831156 0.0143358 
235 0.734807 0.0153517 0.104815 0 0 0 -0.0113687 0.0327882 0.214946 
238 0.0497238 0.0253481 0.0948324 0 0 0 -0.0728593 -0.0367057 -0.0237061 
469 0.237569 0.0203499 0.091505 0 0 0 0.0540402 0.0623498 -0.155469 
232 0.558011 0.022492 0.0981599 0 0 0 0.108267 0.0517017 0.214056 
472 0.745856 0.0274902 0.12478 0 0 0 -0.0871718 0.0164169 -0.0610119 
470 0.922652 0.0274902 0.134762 0 0 0 0.183164 0.0217884 -0.0289464 
471 0.138122 0.0332024 0.121452 0 0 0 0.0720787 -0.0446398 0.046498 
243 0.502762 0.0332024 0.101487 0 0 0 0.0793445 -0.0874024 0.083222 
245 0.834254 0.0389147 0.0948324 0 0 0 -0.02132 -0.0422784 -0.0121165 
478 0.248619 0.0446269 0.104815 0 0 0 -0.0527207 -0.0199382 0.0118725 
477 0.480663 0.0489111 0.101487 0 0 0 -0.118242 -0.00113011 0.0693515 
474 0.955801 0.0417708 0.134762 0 0 0 0.0912593 0.0496979 0.0330302 
476 0.138122 0.0531953 0.128107 0 0 0 -0.0537916 -0.0273754 0.019654 
482 0.259669 0.0567654 0.091505 0 0 0 0.0542653 0.0972899 0.0102643 
480 0.723757 0.0539093 0.101487 0 0 0 0.0175532 -0.00603553 -0.000903431 
475 0.966851 0.0524813 0.108142 0 0 0 -0.0226741 0.0123692 0.0108746 
253 0.0718232 0.0681899 0.0948324 0 0 0 -0.00234507 -0.0827942 0.0589926 
256 0.403315 0.0610496 0.101487 0 0 0 -0.0212803 -0.127883 0.170896 
481 0.701657 0.0639057 0.131434 0 0 0 -0.0408539 -0.0034653 0.00633792 
484 0.889503 0.0660478 0.118125 0 0 0 0.0332551 -0.0315116 -0.0353443 
255 0.226519 0.0710461 0.11147 0 0 0 -0.0527736 0.0174851 0.0187542 
257 0.392265 0.0731881 0.091505 0 0 0 -0.105784 0.0125775 -0.0955861 
263 0.646409 0.0753302 0.091505 0 0 0 -0.0637486 -0.0197813 -0.0337956 
483 0.535912 0.068904 0.12478 0 0 0 0.0039513 0.0196394 0.171482 
262 0.812155 0.0767583 0.0948324 0 0 0 0.032547 -0.105702 0.15494 
486 0.038674 0.0803285 0.104815 0 0 0 -0.120488 -0.0894035 0.0528607 
267 0.171271 0.0860407 0.0948324 0 0 0 0.000281784 -0.028259 -0.0282153 
488 0.480663 0.0817565 0.134762 0 0 0 0.0876426 -0.0873966 0.102988 
260 0.635359 0.0874688 0.0981599 0 0 0 0.0392373 0.0113253 0.0316703 
271 0.856354 0.0867547 0.104815 0 0 0 0.146258 -0.0114093 -0.0207038 
490 0.127072 0.0960371 0.114797 0 0 0 -0.0850536 -0.043621 -0.0218987 
491 0.314917 0.0917529 0.114797 0 0 0 -0.073394 -0.0172295 -0.0523178 
492 0.480663 0.093895 0.108142 0 0 0 0.0373962 -0.044993 -0.0548708 
499 0.790055 0.0967512 0.0948324 0 0 0 -0.0801187 0.0749603 -0.0671983 
495 0.59116 0.101035 0.114797 0 0 0 0.0274376 -0.0712766 -0.040531 
500 0.955801 0.103891 0.091505 0 0 0 0.0396228 0.0590763 -0.00642998 
282 0.0828729 0.114602 0.091505 0 0 0 -0.0698545 -0.0830592 -0.132108 
690 0.18232 0.115316 0.134762 0 0 0 0.0907443 0.0938484 -0.0717687 
686 0.348066 0.113174 0.128107 0 0 0 0.0226572 0.0424517 -0.0737794 
501 0.58011 0.115316 0.118125 0 0 0 -0.149261 0.00455156 -0.136841 
498 0.712707 0.108176 0.121452 0 0 0 0.164091 0.0400923 -0.0578898 
503 0.900552 0.110318 0.131434 0 0 0 0.166849 0.0158638 -0.161253 