LAMMPS (3 Mar 2020)
#-------------------------- Initial Setup -------------------------------------#
log /Users/nikhilkrishnan/Dropbox/Research/PhD/biofilms/LAMMPS_ibm/biofilm-ibm/csd3_scripts/sim_files_KA/log_KA_3_12_04_20_13_32_09_thick_18_len_200_scale_0.6_rep_0.log
