LAMMPS (3 Mar 2020)
#-------------------------- Initial Setup -------------------------------------#
log /Users/nikhilkrishnan/Dropbox/Research/PhD/biofilms/LAMMPS_ibm/biofilm-ibm/csd3_scripts/sim_files_KA/log_KA_3_01_22_21_15_17_33_thick_3_len_140_scale_0.6_rep_0_temp_0.2.log
